# Region type : faceZone InSurface
# Faces  :    590
# Area   :    6.238624e+01
# Time        	areaAverage(surfaceInterpolate(p))
300           	2.646101e-01
300.2         	2.646101e-01
300.4         	2.646101e-01
300.6         	2.646101e-01
300.8         	2.646101e-01
301           	2.648493e-01
301.2         	2.648493e-01
301.4         	2.648493e-01
301.6         	2.648493e-01
301.8         	2.648493e-01
302           	2.650714e-01
302.2         	2.650714e-01
302.4         	2.650714e-01
302.6         	2.650714e-01
302.8         	2.650714e-01
303           	2.652829e-01
303.2         	2.652829e-01
303.4         	2.652829e-01
303.6         	2.652829e-01
303.8         	2.652829e-01
304           	2.654843e-01
304.2         	2.654843e-01
304.4         	2.654843e-01
304.6         	2.654843e-01
304.8         	2.654843e-01
305           	2.656777e-01
305.2         	2.656777e-01
305.4         	2.656777e-01
305.6         	2.656777e-01
305.8         	2.656777e-01
306           	2.658622e-01
306.2         	2.658622e-01
306.4         	2.658622e-01
306.6         	2.658622e-01
306.8         	2.658622e-01
307           	2.660458e-01
307.2         	2.660458e-01
307.4         	2.660458e-01
307.6         	2.660458e-01
307.8         	2.660458e-01
308           	2.662313e-01
308.2         	2.662313e-01
308.4         	2.662313e-01
308.6         	2.662313e-01
308.8         	2.662313e-01
309           	2.664197e-01
309.2         	2.664197e-01
309.4         	2.664197e-01
309.6         	2.664197e-01
309.8         	2.664197e-01
310           	2.666169e-01
310.2         	2.666169e-01
310.4         	2.666169e-01
310.6         	2.666169e-01
310.8         	2.666169e-01
311           	2.668204e-01
311.2         	2.668204e-01
311.4         	2.668204e-01
311.6         	2.668204e-01
311.8         	2.668204e-01
312           	2.670373e-01
312.2         	2.670373e-01
312.4         	2.670373e-01
312.6         	2.670373e-01
312.8         	2.670373e-01
313           	2.672674e-01
313.2         	2.672674e-01
313.4         	2.672674e-01
313.6         	2.672674e-01
313.8         	2.672674e-01
314           	2.675132e-01
314.2         	2.675132e-01
314.4         	2.675132e-01
314.6         	2.675132e-01
314.8         	2.675132e-01
315           	2.677755e-01
315.2         	2.677755e-01
315.4         	2.677755e-01
315.6         	2.677755e-01
315.8         	2.677755e-01
316           	2.680569e-01
316.2         	2.680569e-01
316.4         	2.680569e-01
316.6         	2.680569e-01
316.8         	2.680569e-01
317           	2.683574e-01
317.2         	2.683574e-01
317.4         	2.683574e-01
317.6         	2.683574e-01
317.8         	2.683574e-01
318           	2.686764e-01
318.2         	2.686764e-01
318.4         	2.686764e-01
318.6         	2.686764e-01
318.8         	2.686764e-01
319           	2.690134e-01
319.2         	2.690134e-01
319.4         	2.690134e-01
319.6         	2.690134e-01
319.8         	2.690134e-01
320           	2.693687e-01
320.2         	2.693687e-01
320.4         	2.693687e-01
320.6         	2.693687e-01
320.8         	2.693687e-01
321           	2.697413e-01
321.2         	2.697413e-01
321.4         	2.697413e-01
321.6         	2.697413e-01
321.8         	2.697413e-01
322           	2.701283e-01
322.2         	2.701283e-01
322.4         	2.701283e-01
322.6         	2.701283e-01
322.8         	2.701283e-01
323           	2.705304e-01
323.2         	2.705304e-01
323.4         	2.705304e-01
323.6         	2.705304e-01
323.8         	2.705304e-01
324           	2.709440e-01
324.2         	2.709440e-01
324.4         	2.709440e-01
324.6         	2.709440e-01
324.8         	2.709440e-01
325           	2.713661e-01
325.2         	2.713661e-01
325.4         	2.713661e-01
325.6         	2.713661e-01
325.8         	2.713661e-01
326           	2.717943e-01
326.2         	2.717943e-01
326.4         	2.717943e-01
326.6         	2.717943e-01
326.8         	2.717943e-01
327           	2.722260e-01
327.2         	2.722260e-01
327.4         	2.722260e-01
327.6         	2.722260e-01
327.8         	2.722260e-01
328           	2.726569e-01
328.2         	2.726569e-01
328.4         	2.726569e-01
328.6         	2.726569e-01
328.8         	2.726569e-01
329           	2.730869e-01
329.2         	2.730869e-01
329.4         	2.730869e-01
329.6         	2.730869e-01
329.8         	2.730869e-01
330           	2.735084e-01
330.2         	2.735084e-01
330.4         	2.735084e-01
330.6         	2.735084e-01
330.8         	2.735084e-01
331           	2.739211e-01
331.2         	2.739211e-01
331.4         	2.739211e-01
331.6         	2.739211e-01
331.8         	2.739211e-01
332           	2.743218e-01
332.2         	2.743218e-01
332.4         	2.743218e-01
332.6         	2.743218e-01
332.8         	2.743218e-01
333           	2.747081e-01
333.2         	2.747081e-01
333.4         	2.747081e-01
333.6         	2.747081e-01
333.8         	2.747081e-01
334           	2.750808e-01
334.2         	2.750808e-01
334.4         	2.750808e-01
334.6         	2.750808e-01
334.8         	2.750808e-01
335           	2.754410e-01
335.2         	2.754410e-01
335.4         	2.754410e-01
335.6         	2.754410e-01
335.8         	2.754410e-01
336           	2.757804e-01
336.2         	2.757804e-01
336.4         	2.757804e-01
336.6         	2.757804e-01
336.8         	2.757804e-01
337           	2.761045e-01
337.2         	2.761045e-01
337.4         	2.761045e-01
337.6         	2.761045e-01
337.8         	2.761045e-01
338           	2.764135e-01
338.2         	2.764135e-01
338.4         	2.764135e-01
338.6         	2.764135e-01
338.8         	2.764135e-01
339           	2.767057e-01
339.2         	2.767057e-01
339.4         	2.767057e-01
339.6         	2.767057e-01
339.8         	2.767057e-01
340           	2.769838e-01
340.2         	2.769838e-01
340.4         	2.769838e-01
340.6         	2.769838e-01
340.8         	2.769838e-01
341           	2.772487e-01
341.2         	2.772487e-01
341.4         	2.772487e-01
341.6         	2.772487e-01
341.8         	2.772487e-01
342           	2.775022e-01
342.2         	2.775022e-01
342.4         	2.775022e-01
342.6         	2.775022e-01
342.8         	2.775022e-01
343           	2.777468e-01
343.2         	2.777468e-01
343.4         	2.777468e-01
343.6         	2.777468e-01
343.8         	2.777468e-01
344           	2.779854e-01
344.2         	2.779854e-01
344.4         	2.779854e-01
344.6         	2.779854e-01
344.8         	2.779854e-01
345           	2.782194e-01
345.2         	2.782194e-01
345.4         	2.782194e-01
345.6         	2.782194e-01
345.8         	2.782194e-01
346           	2.784513e-01
346.2         	2.784513e-01
346.4         	2.784513e-01
346.6         	2.784513e-01
346.8         	2.784513e-01
347           	2.786834e-01
347.2         	2.786834e-01
347.4         	2.786834e-01
347.6         	2.786834e-01
347.8         	2.786834e-01
348           	2.789456e-01
348.2         	2.789456e-01
348.4         	2.789456e-01
348.6         	2.789456e-01
348.8         	2.789456e-01
349           	2.791862e-01
349.2         	2.791862e-01
349.4         	2.791862e-01
349.6         	2.791862e-01
349.8         	2.791862e-01
350           	2.794341e-01
350.2         	2.794341e-01
350.4         	2.794341e-01
350.6         	2.794341e-01
350.8         	2.794341e-01
351           	2.796913e-01
351.2         	2.796913e-01
351.4         	2.796913e-01
351.6         	2.796913e-01
351.8         	2.796913e-01
352           	2.799611e-01
352.2         	2.799611e-01
352.4         	2.799611e-01
352.6         	2.799611e-01
352.8         	2.799611e-01
353           	2.802425e-01
353.2         	2.802425e-01
353.4         	2.802425e-01
353.6         	2.802425e-01
353.8         	2.802425e-01
354           	2.805389e-01
354.2         	2.805389e-01
354.4         	2.805389e-01
354.6         	2.805389e-01
354.8         	2.805389e-01
355           	2.808508e-01
355.2         	2.808508e-01
355.4         	2.808508e-01
355.6         	2.808508e-01
355.8         	2.808508e-01
356           	2.811798e-01
356.2         	2.811798e-01
356.4         	2.811798e-01
356.6         	2.811798e-01
356.8         	2.811798e-01
357           	2.815254e-01
357.2         	2.815254e-01
357.4         	2.815254e-01
357.6         	2.815254e-01
357.8         	2.815254e-01
358           	2.818889e-01
358.2         	2.818889e-01
358.4         	2.818889e-01
358.6         	2.818889e-01
358.8         	2.818889e-01
359           	2.822700e-01
359.2         	2.822700e-01
359.4         	2.822700e-01
359.6         	2.822700e-01
359.8         	2.822700e-01
360           	2.826686e-01
360.2         	2.826686e-01
360.4         	2.826686e-01
360.6         	2.826686e-01
360.8         	2.826686e-01
361           	2.830829e-01
361.2         	2.830829e-01
361.4         	2.830829e-01
361.6         	2.830829e-01
361.8         	2.830829e-01
362           	2.835152e-01
362.2         	2.835152e-01
362.4         	2.835152e-01
362.6         	2.835152e-01
362.8         	2.835152e-01
363           	2.839605e-01
363.2         	2.839605e-01
363.4         	2.839605e-01
363.6         	2.839605e-01
363.8         	2.839605e-01
364           	2.844199e-01
364.2         	2.844199e-01
364.4         	2.844199e-01
364.6         	2.844199e-01
364.8         	2.844199e-01
365           	2.848900e-01
365.2         	2.848900e-01
365.4         	2.848900e-01
365.6         	2.848900e-01
365.8         	2.848900e-01
366           	2.853704e-01
366.2         	2.853704e-01
366.4         	2.853704e-01
366.6         	2.853704e-01
366.8         	2.853704e-01
367           	2.858573e-01
367.2         	2.858573e-01
367.4         	2.858573e-01
367.6         	2.858573e-01
367.8         	2.858573e-01
368           	2.863500e-01
368.2         	2.863500e-01
368.4         	2.863500e-01
368.6         	2.863500e-01
368.8         	2.863500e-01
369           	2.868456e-01
369.2         	2.868456e-01
369.4         	2.868456e-01
369.6         	2.868456e-01
369.8         	2.868456e-01
370           	2.873433e-01
370.2         	2.873433e-01
370.4         	2.873433e-01
370.6         	2.873433e-01
370.8         	2.873433e-01
371           	2.878401e-01
371.2         	2.878401e-01
371.4         	2.878401e-01
371.6         	2.878401e-01
371.8         	2.878401e-01
372           	2.883327e-01
372.2         	2.883327e-01
372.4         	2.883327e-01
372.6         	2.883327e-01
372.8         	2.883327e-01
373           	2.888229e-01
373.2         	2.888229e-01
373.4         	2.888229e-01
373.6         	2.888229e-01
373.8         	2.888229e-01
374           	2.893054e-01
374.2         	2.893054e-01
374.4         	2.893054e-01
374.6         	2.893054e-01
374.8         	2.893054e-01
375           	2.897804e-01
375.2         	2.897804e-01
375.4         	2.897804e-01
375.6         	2.897804e-01
375.8         	2.897804e-01
376           	2.902490e-01
376.2         	2.902490e-01
376.4         	2.902490e-01
376.6         	2.902490e-01
376.8         	2.902490e-01
377           	2.907092e-01
377.2         	2.907092e-01
377.4         	2.907092e-01
377.6         	2.907092e-01
377.8         	2.907092e-01
378           	2.911615e-01
378.2         	2.911615e-01
378.4         	2.911615e-01
378.6         	2.911615e-01
378.8         	2.911615e-01
379           	2.916066e-01
379.2         	2.916066e-01
379.4         	2.916066e-01
379.6         	2.916066e-01
379.8         	2.916066e-01
380           	2.920439e-01
380.2         	2.920439e-01
380.4         	2.920439e-01
380.6         	2.920439e-01
380.8         	2.920439e-01
381           	2.924748e-01
381.2         	2.924748e-01
381.4         	2.924748e-01
381.6         	2.924748e-01
381.8         	2.924748e-01
382           	2.929004e-01
382.2         	2.929004e-01
382.4         	2.929004e-01
382.6         	2.929004e-01
382.8         	2.929004e-01
383           	2.933216e-01
383.2         	2.933216e-01
383.4         	2.933216e-01
383.6         	2.933216e-01
383.8         	2.933216e-01
384           	2.937389e-01
384.2         	2.937389e-01
384.4         	2.937389e-01
384.6         	2.937389e-01
384.8         	2.937389e-01
385           	2.941545e-01
385.2         	2.941545e-01
385.4         	2.941545e-01
385.6         	2.941545e-01
385.8         	2.941545e-01
386           	2.945681e-01
386.2         	2.945681e-01
386.4         	2.945681e-01
386.6         	2.945681e-01
386.8         	2.945681e-01
387           	2.949815e-01
387.2         	2.949815e-01
387.4         	2.949815e-01
387.6         	2.949815e-01
387.8         	2.949815e-01
388           	2.953953e-01
388.2         	2.953953e-01
388.4         	2.953953e-01
388.6         	2.953953e-01
388.8         	2.953953e-01
389           	2.958122e-01
389.2         	2.958122e-01
389.4         	2.958122e-01
389.6         	2.958122e-01
389.8         	2.958122e-01
390           	2.962323e-01
390.2         	2.962323e-01
390.4         	2.962323e-01
390.6         	2.962323e-01
390.8         	2.962323e-01
391           	2.966568e-01
391.2         	2.966568e-01
391.4         	2.966568e-01
391.6         	2.966568e-01
391.8         	2.966568e-01
392           	2.970858e-01
392.2         	2.970858e-01
392.4         	2.970858e-01
392.6         	2.970858e-01
392.8         	2.970858e-01
393           	2.975201e-01
393.2         	2.975201e-01
393.4         	2.975201e-01
393.6         	2.975201e-01
393.8         	2.975201e-01
394           	2.979615e-01
394.2         	2.979615e-01
394.4         	2.979615e-01
394.6         	2.979615e-01
394.8         	2.979615e-01
395           	2.984091e-01
395.2         	2.984091e-01
395.4         	2.984091e-01
395.6         	2.984091e-01
395.8         	2.984091e-01
396           	2.988647e-01
396.2         	2.988647e-01
396.4         	2.988647e-01
396.6         	2.988647e-01
396.8         	2.988647e-01
397           	2.993270e-01
397.2         	2.993270e-01
397.4         	2.993270e-01
397.6         	2.993270e-01
397.8         	2.993270e-01
398           	2.997976e-01
398.2         	2.997976e-01
398.4         	2.997976e-01
398.6         	2.997976e-01
398.8         	2.997976e-01
399           	3.002746e-01
399.2         	3.002746e-01
399.4         	3.002746e-01
399.6         	3.002746e-01
399.8         	3.002746e-01
400           	3.007592e-01
400.2         	3.007592e-01
400.4         	3.007592e-01
400.6         	3.007592e-01
400.8         	3.007592e-01
401           	3.012500e-01
401.2         	3.012500e-01
401.4         	3.012500e-01
401.6         	3.012500e-01
401.8         	3.012500e-01
402           	3.017456e-01
402.2         	3.017456e-01
402.4         	3.017456e-01
402.6         	3.017456e-01
402.8         	3.017456e-01
403           	3.022514e-01
403.2         	3.022514e-01
403.4         	3.022514e-01
403.6         	3.022514e-01
403.8         	3.022514e-01
404           	3.027509e-01
404.2         	3.027509e-01
404.4         	3.027509e-01
404.6         	3.027509e-01
404.8         	3.027509e-01
405           	3.032582e-01
405.2         	3.032582e-01
405.4         	3.032582e-01
405.6         	3.032582e-01
405.8         	3.032582e-01
406           	3.037713e-01
406.2         	3.037713e-01
406.4         	3.037713e-01
406.6         	3.037713e-01
406.8         	3.037713e-01
407           	3.042868e-01
407.2         	3.042868e-01
407.4         	3.042868e-01
407.6         	3.042868e-01
407.8         	3.042868e-01
408           	3.048054e-01
408.2         	3.048054e-01
408.4         	3.048054e-01
408.6         	3.048054e-01
408.8         	3.048054e-01
409           	3.053407e-01
409.2         	3.053407e-01
409.4         	3.053407e-01
409.6         	3.053407e-01
409.8         	3.053407e-01
410           	3.058721e-01
410.2         	3.058721e-01
410.4         	3.058721e-01
410.6         	3.058721e-01
410.8         	3.058721e-01
411           	3.063936e-01
411.2         	3.063936e-01
411.4         	3.063936e-01
411.6         	3.063936e-01
411.8         	3.063936e-01
412           	3.069153e-01
412.2         	3.069153e-01
412.4         	3.069153e-01
412.6         	3.069153e-01
412.8         	3.069153e-01
413           	3.074339e-01
413.2         	3.074339e-01
413.4         	3.074339e-01
413.6         	3.074339e-01
413.8         	3.074339e-01
414           	3.079531e-01
414.2         	3.079531e-01
414.4         	3.079531e-01
414.6         	3.079531e-01
414.8         	3.079531e-01
415           	3.084685e-01
415.2         	3.084685e-01
415.4         	3.084685e-01
415.6         	3.084685e-01
415.8         	3.084685e-01
416           	3.089831e-01
416.2         	3.089831e-01
416.4         	3.089831e-01
416.6         	3.089831e-01
416.8         	3.089831e-01
417           	3.094944e-01
417.2         	3.094944e-01
417.4         	3.094944e-01
417.6         	3.094944e-01
417.8         	3.094944e-01
418           	3.100063e-01
418.2         	3.100063e-01
418.4         	3.100063e-01
418.6         	3.100063e-01
418.8         	3.100063e-01
419           	3.105157e-01
419.2         	3.105157e-01
419.4         	3.105157e-01
419.6         	3.105157e-01
419.8         	3.105157e-01
420           	3.110242e-01
420.2         	3.110242e-01
420.4         	3.110242e-01
420.6         	3.110242e-01
420.8         	3.110242e-01
421           	3.115332e-01
421.2         	3.115332e-01
421.4         	3.115332e-01
421.6         	3.115332e-01
421.8         	3.115332e-01
422           	3.120379e-01
422.2         	3.120379e-01
422.4         	3.120379e-01
422.6         	3.120379e-01
422.8         	3.120379e-01
423           	3.125448e-01
423.2         	3.125448e-01
423.4         	3.125448e-01
423.6         	3.125448e-01
423.8         	3.125448e-01
424           	3.130529e-01
424.2         	3.130529e-01
424.4         	3.130529e-01
424.6         	3.130529e-01
424.8         	3.130529e-01
425           	3.135614e-01
425.2         	3.135614e-01
425.4         	3.135614e-01
425.6         	3.135614e-01
425.8         	3.135614e-01
426           	3.140731e-01
426.2         	3.140731e-01
426.4         	3.140731e-01
426.6         	3.140731e-01
426.8         	3.140731e-01
427           	3.145862e-01
427.2         	3.145862e-01
427.4         	3.145862e-01
427.6         	3.145862e-01
427.8         	3.145862e-01
428           	3.151025e-01
428.2         	3.151025e-01
428.4         	3.151025e-01
428.6         	3.151025e-01
428.8         	3.151025e-01
429           	3.156233e-01
429.2         	3.156233e-01
429.4         	3.156233e-01
429.6         	3.156233e-01
429.8         	3.156233e-01
430           	3.161474e-01
430.2         	3.161474e-01
430.4         	3.161474e-01
430.6         	3.161474e-01
430.8         	3.161474e-01
431           	3.166752e-01
431.2         	3.166752e-01
431.4         	3.166752e-01
431.6         	3.166752e-01
431.8         	3.166752e-01
432           	3.172081e-01
432.2         	3.172081e-01
432.4         	3.172081e-01
432.6         	3.172081e-01
432.8         	3.172081e-01
433           	3.177451e-01
433.2         	3.177451e-01
433.4         	3.177451e-01
433.6         	3.177451e-01
433.8         	3.177451e-01
434           	3.182845e-01
434.2         	3.182845e-01
434.4         	3.182845e-01
434.6         	3.182845e-01
434.8         	3.182845e-01
435           	3.188300e-01
435.2         	3.188300e-01
435.4         	3.188300e-01
435.6         	3.188300e-01
435.8         	3.188300e-01
436           	3.193797e-01
436.2         	3.193797e-01
436.4         	3.193797e-01
436.6         	3.193797e-01
436.8         	3.193797e-01
437           	3.199331e-01
437.2         	3.199331e-01
437.4         	3.199331e-01
437.6         	3.199331e-01
437.8         	3.199331e-01
438           	3.204898e-01
438.2         	3.204898e-01
438.4         	3.204898e-01
438.6         	3.204898e-01
438.8         	3.204898e-01
439           	3.210497e-01
439.2         	3.210497e-01
439.4         	3.210497e-01
439.6         	3.210497e-01
439.8         	3.210497e-01
440           	3.216112e-01
440.2         	3.216112e-01
440.4         	3.216112e-01
440.6         	3.216112e-01
440.8         	3.216112e-01
441           	3.221752e-01
441.2         	3.221752e-01
441.4         	3.221752e-01
441.6         	3.221752e-01
441.8         	3.221752e-01
442           	3.227371e-01
442.2         	3.227371e-01
442.4         	3.227371e-01
442.6         	3.227371e-01
442.8         	3.227371e-01
443           	3.233016e-01
443.2         	3.233016e-01
443.4         	3.233016e-01
443.6         	3.233016e-01
443.8         	3.233016e-01
444           	3.238642e-01
444.2         	3.238642e-01
444.4         	3.238642e-01
444.6         	3.238642e-01
444.8         	3.238642e-01
445           	3.244259e-01
445.2         	3.244259e-01
445.4         	3.244259e-01
445.6         	3.244259e-01
445.8         	3.244259e-01
446           	3.249846e-01
446.2         	3.249846e-01
446.4         	3.249846e-01
446.6         	3.249846e-01
446.8         	3.249846e-01
447           	3.255406e-01
447.2         	3.255406e-01
447.4         	3.255406e-01
447.6         	3.255406e-01
447.8         	3.255406e-01
448           	3.260925e-01
448.2         	3.260925e-01
448.4         	3.260925e-01
448.6         	3.260925e-01
448.8         	3.260925e-01
449           	3.266403e-01
449.2         	3.266403e-01
449.4         	3.266403e-01
449.6         	3.266403e-01
449.8         	3.266403e-01
450           	3.271822e-01
450.2         	3.271822e-01
450.4         	3.271822e-01
450.6         	3.271822e-01
450.8         	3.271822e-01
451           	3.277184e-01
451.2         	3.277184e-01
451.4         	3.277184e-01
451.6         	3.277184e-01
451.8         	3.277184e-01
452           	3.282496e-01
452.2         	3.282496e-01
452.4         	3.282496e-01
452.6         	3.282496e-01
452.8         	3.282496e-01
453           	3.287744e-01
453.2         	3.287744e-01
453.4         	3.287744e-01
453.6         	3.287744e-01
453.8         	3.287744e-01
454           	3.292931e-01
454.2         	3.292931e-01
454.4         	3.292931e-01
454.6         	3.292931e-01
454.8         	3.292931e-01
455           	3.298060e-01
455.2         	3.298060e-01
455.4         	3.298060e-01
455.6         	3.298060e-01
455.8         	3.298060e-01
456           	3.303135e-01
456.2         	3.303135e-01
456.4         	3.303135e-01
456.6         	3.303135e-01
456.8         	3.303135e-01
457           	3.308137e-01
457.2         	3.308137e-01
457.4         	3.308137e-01
457.6         	3.308137e-01
457.8         	3.308137e-01
458           	3.313093e-01
458.2         	3.313093e-01
458.4         	3.313093e-01
458.6         	3.313093e-01
458.8         	3.313093e-01
459           	3.317999e-01
459.2         	3.317999e-01
459.4         	3.317999e-01
459.6         	3.317999e-01
459.8         	3.317999e-01
460           	3.322871e-01
460.2         	3.322871e-01
460.4         	3.322871e-01
460.6         	3.322871e-01
460.8         	3.322871e-01
461           	3.327698e-01
461.2         	3.327698e-01
461.4         	3.327698e-01
461.6         	3.327698e-01
461.8         	3.327698e-01
462           	3.332482e-01
462.2         	3.332482e-01
462.4         	3.332482e-01
462.6         	3.332482e-01
462.8         	3.332482e-01
463           	3.337256e-01
463.2         	3.337256e-01
463.4         	3.337256e-01
463.6         	3.337256e-01
463.8         	3.337256e-01
464           	3.342028e-01
464.2         	3.342028e-01
464.4         	3.342028e-01
464.6         	3.342028e-01
464.8         	3.342028e-01
465           	3.346799e-01
465.2         	3.346799e-01
465.4         	3.346799e-01
465.6         	3.346799e-01
465.8         	3.346799e-01
466           	3.351656e-01
466.2         	3.351656e-01
466.4         	3.351656e-01
466.6         	3.351656e-01
466.8         	3.351656e-01
467           	3.356482e-01
467.2         	3.356482e-01
467.4         	3.356482e-01
467.6         	3.356482e-01
467.8         	3.356482e-01
468           	3.361363e-01
468.2         	3.361363e-01
468.4         	3.361363e-01
468.6         	3.361363e-01
468.8         	3.361363e-01
469           	3.366320e-01
469.2         	3.366320e-01
469.4         	3.366320e-01
469.6         	3.366320e-01
469.8         	3.366320e-01
470           	3.371368e-01
470.2         	3.371368e-01
470.4         	3.371368e-01
470.6         	3.371368e-01
470.8         	3.371368e-01
471           	3.376543e-01
471.2         	3.376543e-01
471.4         	3.376543e-01
471.6         	3.376543e-01
471.8         	3.376543e-01
472           	3.381867e-01
472.2         	3.381867e-01
472.4         	3.381867e-01
472.6         	3.381867e-01
472.8         	3.381867e-01
473           	3.387404e-01
473.2         	3.387404e-01
473.4         	3.387404e-01
473.6         	3.387404e-01
473.8         	3.387404e-01
474           	3.393196e-01
474.2         	3.393196e-01
474.4         	3.393196e-01
474.6         	3.393196e-01
474.8         	3.393196e-01
475           	3.399316e-01
475.2         	3.399316e-01
475.4         	3.399316e-01
475.6         	3.399316e-01
475.8         	3.399316e-01
476           	3.405864e-01
476.2         	3.405864e-01
476.4         	3.405864e-01
476.6         	3.405864e-01
476.8         	3.405864e-01
477           	3.412984e-01
477.2         	3.412984e-01
