# Region type : faceZone InSurface
# Faces  :    2454
# Area   :    1.018735e+02
# Time        	areaAverage(surfaceInterpolate(p))
100           	3.137603e-01
100.2         	3.137603e-01
100.4         	3.137603e-01
100.6         	3.137603e-01
100.8         	3.137603e-01
101           	3.138913e-01
101.2         	3.138913e-01
101.4         	3.138913e-01
101.6         	3.138913e-01
101.8         	3.138913e-01
102           	3.139675e-01
102.2         	3.139675e-01
102.4         	3.139675e-01
102.6         	3.139675e-01
102.8         	3.139675e-01
103           	3.141697e-01
103.2         	3.141697e-01
103.4         	3.141697e-01
103.6         	3.141697e-01
103.8         	3.141697e-01
104           	3.142587e-01
104.2         	3.142587e-01
104.4         	3.142587e-01
104.6         	3.142587e-01
104.8         	3.142587e-01
105           	3.144808e-01
105.2         	3.144808e-01
105.4         	3.144808e-01
105.6         	3.144808e-01
105.8         	3.144808e-01
106           	3.146043e-01
106.2         	3.146043e-01
106.4         	3.146043e-01
106.6         	3.146043e-01
106.8         	3.146043e-01
107           	3.147849e-01
107.2         	3.147849e-01
107.4         	3.147849e-01
107.6         	3.147849e-01
107.8         	3.147849e-01
108           	3.148358e-01
108.2         	3.148358e-01
108.4         	3.148358e-01
108.6         	3.148358e-01
108.8         	3.148358e-01
109           	3.150874e-01
109.2         	3.150874e-01
109.4         	3.150874e-01
109.6         	3.150874e-01
109.8         	3.150874e-01
110           	3.152503e-01
110.2         	3.152503e-01
110.4         	3.152503e-01
110.6         	3.152503e-01
110.8         	3.152503e-01
111           	3.154109e-01
111.2         	3.154109e-01
111.4         	3.154109e-01
111.6         	3.154109e-01
111.8         	3.154109e-01
112           	3.155760e-01
112.2         	3.155760e-01
112.4         	3.155760e-01
112.6         	3.155760e-01
112.8         	3.155760e-01
113           	3.157265e-01
113.2         	3.157265e-01
113.4         	3.157265e-01
113.6         	3.157265e-01
113.8         	3.157265e-01
114           	3.158839e-01
114.2         	3.158839e-01
114.4         	3.158839e-01
114.6         	3.158839e-01
114.8         	3.158839e-01
115           	3.160320e-01
115.2         	3.160320e-01
115.4         	3.160320e-01
115.6         	3.160320e-01
115.8         	3.160320e-01
116           	3.161908e-01
116.2         	3.161908e-01
116.4         	3.161908e-01
116.6         	3.161908e-01
116.8         	3.161908e-01
117           	3.163230e-01
117.2         	3.163230e-01
117.4         	3.163230e-01
117.6         	3.163230e-01
117.8         	3.163230e-01
118           	3.164865e-01
118.2         	3.164865e-01
118.4         	3.164865e-01
118.6         	3.164865e-01
118.8         	3.164865e-01
119           	3.166289e-01
119.2         	3.166289e-01
119.4         	3.166289e-01
119.6         	3.166289e-01
119.8         	3.166289e-01
120           	3.168089e-01
120.2         	3.168089e-01
120.4         	3.168089e-01
120.6         	3.168089e-01
120.8         	3.168089e-01
121           	3.169660e-01
121.2         	3.169660e-01
121.4         	3.169660e-01
121.6         	3.169660e-01
121.8         	3.169660e-01
122           	3.170930e-01
122.2         	3.170930e-01
122.4         	3.170930e-01
122.6         	3.170930e-01
122.8         	3.170930e-01
123           	3.172559e-01
123.2         	3.172559e-01
123.4         	3.172559e-01
123.6         	3.172559e-01
123.8         	3.172559e-01
124           	3.173822e-01
124.2         	3.173822e-01
124.4         	3.173822e-01
124.6         	3.173822e-01
124.8         	3.173822e-01
125           	3.175175e-01
125.2         	3.175175e-01
125.4         	3.175175e-01
125.6         	3.175175e-01
125.8         	3.175175e-01
126           	3.176758e-01
126.2         	3.176758e-01
126.4         	3.176758e-01
126.6         	3.176758e-01
126.8         	3.176758e-01
127           	3.178158e-01
127.2         	3.178158e-01
127.4         	3.178158e-01
127.6         	3.178158e-01
127.8         	3.178158e-01
128           	3.179573e-01
128.2         	3.179573e-01
128.4         	3.179573e-01
128.6         	3.179573e-01
128.8         	3.179573e-01
129           	3.181014e-01
129.2         	3.181014e-01
129.4         	3.181014e-01
129.6         	3.181014e-01
129.8         	3.181014e-01
130           	3.182389e-01
130.2         	3.182389e-01
130.4         	3.182389e-01
130.6         	3.182389e-01
130.8         	3.182389e-01
131           	3.183637e-01
131.2         	3.183637e-01
131.4         	3.183637e-01
131.6         	3.183637e-01
131.8         	3.183637e-01
132           	3.184995e-01
132.2         	3.184995e-01
132.4         	3.184995e-01
132.6         	3.184995e-01
132.8         	3.184995e-01
133           	3.186353e-01
133.2         	3.186353e-01
133.4         	3.186353e-01
133.6         	3.186353e-01
133.8         	3.186353e-01
134           	3.187591e-01
134.2         	3.187591e-01
134.4         	3.187591e-01
134.6         	3.187591e-01
134.8         	3.187591e-01
135           	3.189690e-01
135.2         	3.189690e-01
135.4         	3.189690e-01
135.6         	3.189690e-01
135.8         	3.189690e-01
136           	3.190158e-01
136.2         	3.190158e-01
136.4         	3.190158e-01
136.6         	3.190158e-01
136.8         	3.190158e-01
137           	3.191631e-01
137.2         	3.191631e-01
137.4         	3.191631e-01
137.6         	3.191631e-01
137.8         	3.191631e-01
138           	3.192812e-01
138.2         	3.192812e-01
138.4         	3.192812e-01
138.6         	3.192812e-01
138.8         	3.192812e-01
139           	3.194059e-01
139.2         	3.194059e-01
139.4         	3.194059e-01
139.6         	3.194059e-01
139.8         	3.194059e-01
140           	3.195296e-01
140.2         	3.195296e-01
140.4         	3.195296e-01
140.6         	3.195296e-01
140.8         	3.195296e-01
141           	3.196696e-01
141.2         	3.196696e-01
141.4         	3.196696e-01
141.6         	3.196696e-01
141.8         	3.196696e-01
142           	3.197795e-01
142.2         	3.197795e-01
142.4         	3.197795e-01
142.6         	3.197795e-01
142.8         	3.197795e-01
143           	3.198859e-01
143.2         	3.198859e-01
143.4         	3.198859e-01
143.6         	3.198859e-01
143.8         	3.198859e-01
144           	3.200211e-01
144.2         	3.200211e-01
144.4         	3.200211e-01
144.6         	3.200211e-01
144.8         	3.200211e-01
145           	3.201346e-01
145.2         	3.201346e-01
145.4         	3.201346e-01
145.6         	3.201346e-01
145.8         	3.201346e-01
146           	3.202454e-01
146.2         	3.202454e-01
146.4         	3.202454e-01
146.6         	3.202454e-01
146.8         	3.202454e-01
147           	3.203738e-01
147.2         	3.203738e-01
147.4         	3.203738e-01
147.6         	3.203738e-01
147.8         	3.203738e-01
148           	3.205026e-01
148.2         	3.205026e-01
148.4         	3.205026e-01
148.6         	3.205026e-01
148.8         	3.205026e-01
149           	3.206182e-01
149.2         	3.206182e-01
149.4         	3.206182e-01
149.6         	3.206182e-01
149.8         	3.206182e-01
150           	3.206874e-01
150.2         	3.206874e-01
150.4         	3.206874e-01
150.6         	3.206874e-01
150.8         	3.206874e-01
151           	3.208272e-01
151.2         	3.208272e-01
151.4         	3.208272e-01
151.6         	3.208272e-01
151.8         	3.208272e-01
152           	3.209483e-01
152.2         	3.209483e-01
152.4         	3.209483e-01
152.6         	3.209483e-01
152.8         	3.209483e-01
153           	3.210733e-01
153.2         	3.210733e-01
153.4         	3.210733e-01
153.6         	3.210733e-01
153.8         	3.210733e-01
154           	3.211862e-01
154.2         	3.211862e-01
154.4         	3.211862e-01
154.6         	3.211862e-01
154.8         	3.211862e-01
155           	3.213197e-01
155.2         	3.213197e-01
155.4         	3.213197e-01
155.6         	3.213197e-01
155.8         	3.213197e-01
156           	3.214291e-01
156.2         	3.214291e-01
156.4         	3.214291e-01
156.6         	3.214291e-01
156.8         	3.214291e-01
157           	3.215441e-01
157.2         	3.215441e-01
157.4         	3.215441e-01
157.6         	3.215441e-01
157.8         	3.215441e-01
158           	3.216775e-01
158.2         	3.216775e-01
158.4         	3.216775e-01
158.6         	3.216775e-01
158.8         	3.216775e-01
159           	3.217681e-01
159.2         	3.217681e-01
159.4         	3.217681e-01
159.6         	3.217681e-01
159.8         	3.217681e-01
160           	3.218619e-01
160.2         	3.218619e-01
160.4         	3.218619e-01
160.6         	3.218619e-01
160.8         	3.218619e-01
161           	3.220139e-01
161.2         	3.220139e-01
161.4         	3.220139e-01
161.6         	3.220139e-01
161.8         	3.220139e-01
162           	3.221004e-01
162.2         	3.221004e-01
162.4         	3.221004e-01
162.6         	3.221004e-01
162.8         	3.221004e-01
163           	3.221978e-01
163.2         	3.221978e-01
163.4         	3.221978e-01
163.6         	3.221978e-01
163.8         	3.221978e-01
164           	3.223268e-01
164.2         	3.223268e-01
164.4         	3.223268e-01
164.6         	3.223268e-01
164.8         	3.223268e-01
165           	3.224338e-01
165.2         	3.224338e-01
165.4         	3.224338e-01
165.6         	3.224338e-01
165.8         	3.224338e-01
166           	3.225626e-01
166.2         	3.225626e-01
166.4         	3.225626e-01
166.6         	3.225626e-01
166.8         	3.225626e-01
167           	3.226965e-01
167.2         	3.226965e-01
167.4         	3.226965e-01
167.6         	3.226965e-01
167.8         	3.226965e-01
168           	3.227375e-01
168.2         	3.227375e-01
168.4         	3.227375e-01
168.6         	3.227375e-01
168.8         	3.227375e-01
169           	3.228961e-01
169.2         	3.228961e-01
169.4         	3.228961e-01
169.6         	3.228961e-01
169.8         	3.228961e-01
170           	3.230072e-01
170.2         	3.230072e-01
170.4         	3.230072e-01
170.6         	3.230072e-01
170.8         	3.230072e-01
171           	3.231216e-01
171.2         	3.231216e-01
171.4         	3.231216e-01
171.6         	3.231216e-01
171.8         	3.231216e-01
172           	3.232286e-01
172.2         	3.232286e-01
172.4         	3.232286e-01
172.6         	3.232286e-01
172.8         	3.232286e-01
173           	3.233433e-01
173.2         	3.233433e-01
173.4         	3.233433e-01
173.6         	3.233433e-01
173.8         	3.233433e-01
174           	3.234583e-01
174.2         	3.234583e-01
174.4         	3.234583e-01
174.6         	3.234583e-01
174.8         	3.234583e-01
175           	3.235457e-01
175.2         	3.235457e-01
175.4         	3.235457e-01
175.6         	3.235457e-01
175.8         	3.235457e-01
176           	3.236663e-01
176.2         	3.236663e-01
176.4         	3.236663e-01
176.6         	3.236663e-01
176.8         	3.236663e-01
177           	3.237809e-01
177.2         	3.237809e-01
177.4         	3.237809e-01
177.6         	3.237809e-01
177.8         	3.237809e-01
178           	3.238928e-01
178.2         	3.238928e-01
178.4         	3.238928e-01
178.6         	3.238928e-01
178.8         	3.238928e-01
179           	3.239914e-01
179.2         	3.239914e-01
179.4         	3.239914e-01
179.6         	3.239914e-01
179.8         	3.239914e-01
180           	3.240950e-01
180.2         	3.240950e-01
180.4         	3.240950e-01
180.6         	3.240950e-01
180.8         	3.240950e-01
181           	3.242230e-01
181.2         	3.242230e-01
181.4         	3.242230e-01
181.6         	3.242230e-01
181.8         	3.242230e-01
182           	3.243377e-01
182.2         	3.243377e-01
182.4         	3.243377e-01
182.6         	3.243377e-01
182.8         	3.243377e-01
183           	3.244321e-01
183.2         	3.244321e-01
183.4         	3.244321e-01
183.6         	3.244321e-01
183.8         	3.244321e-01
184           	3.245424e-01
184.2         	3.245424e-01
184.4         	3.245424e-01
184.6         	3.245424e-01
184.8         	3.245424e-01
185           	3.246786e-01
185.2         	3.246786e-01
185.4         	3.246786e-01
185.6         	3.246786e-01
185.8         	3.246786e-01
186           	3.248085e-01
186.2         	3.248085e-01
186.4         	3.248085e-01
186.6         	3.248085e-01
186.8         	3.248085e-01
187           	3.249316e-01
187.2         	3.249316e-01
187.4         	3.249316e-01
187.6         	3.249316e-01
187.8         	3.249316e-01
188           	3.250689e-01
188.2         	3.250689e-01
188.4         	3.250689e-01
188.6         	3.250689e-01
188.8         	3.250689e-01
189           	3.251972e-01
189.2         	3.251972e-01
189.4         	3.251972e-01
189.6         	3.251972e-01
189.8         	3.251972e-01
190           	3.253697e-01
190.2         	3.253697e-01
190.4         	3.253697e-01
190.6         	3.253697e-01
190.8         	3.253697e-01
191           	3.254340e-01
191.2         	3.254340e-01
191.4         	3.254340e-01
191.6         	3.254340e-01
191.8         	3.254340e-01
192           	3.255730e-01
192.2         	3.255730e-01
192.4         	3.255730e-01
192.6         	3.255730e-01
192.8         	3.255730e-01
193           	3.257084e-01
193.2         	3.257084e-01
193.4         	3.257084e-01
193.6         	3.257084e-01
193.8         	3.257084e-01
194           	3.258502e-01
194.2         	3.258502e-01
194.4         	3.258502e-01
194.6         	3.258502e-01
194.8         	3.258502e-01
195           	3.260087e-01
195.2         	3.260087e-01
195.4         	3.260087e-01
195.6         	3.260087e-01
195.8         	3.260087e-01
196           	3.261569e-01
196.2         	3.261569e-01
196.4         	3.261569e-01
196.6         	3.261569e-01
196.8         	3.261569e-01
197           	3.263169e-01
197.2         	3.263169e-01
197.4         	3.263169e-01
197.6         	3.263169e-01
197.8         	3.263169e-01
198           	3.264792e-01
198.2         	3.264792e-01
198.4         	3.264792e-01
198.6         	3.264792e-01
198.8         	3.264792e-01
199           	3.266382e-01
199.2         	3.266382e-01
199.4         	3.266382e-01
199.6         	3.266382e-01
199.8         	3.266382e-01
200           	3.267789e-01
200.2         	3.267789e-01
200.4         	3.267789e-01
200.6         	3.267789e-01
200.8         	3.267789e-01
201           	3.269528e-01
201.2         	3.269528e-01
201.4         	3.269528e-01
201.6         	3.269528e-01
201.8         	3.269528e-01
202           	3.271174e-01
202.2         	3.271174e-01
202.4         	3.271174e-01
202.6         	3.271174e-01
202.8         	3.271174e-01
203           	3.273000e-01
203.2         	3.273000e-01
203.4         	3.273000e-01
203.6         	3.273000e-01
203.8         	3.273000e-01
204           	3.274839e-01
204.2         	3.274839e-01
204.4         	3.274839e-01
204.6         	3.274839e-01
204.8         	3.274839e-01
205           	3.276992e-01
205.2         	3.276992e-01
205.4         	3.276992e-01
205.6         	3.276992e-01
205.8         	3.276992e-01
206           	3.279221e-01
206.2         	3.279221e-01
206.4         	3.279221e-01
206.6         	3.279221e-01
206.8         	3.279221e-01
207           	3.281612e-01
207.2         	3.281612e-01
207.4         	3.281612e-01
207.6         	3.281612e-01
207.8         	3.281612e-01
208           	3.284043e-01
208.2         	3.284043e-01
208.4         	3.284043e-01
208.6         	3.284043e-01
208.8         	3.284043e-01
209           	3.286487e-01
209.2         	3.286487e-01
209.4         	3.286487e-01
209.6         	3.286487e-01
209.8         	3.286487e-01
210           	3.289166e-01
210.2         	3.289166e-01
210.4         	3.289166e-01
210.6         	3.289166e-01
210.8         	3.289166e-01
211           	3.291692e-01
211.2         	3.291692e-01
211.4         	3.291692e-01
211.6         	3.291692e-01
211.8         	3.291692e-01
212           	3.294230e-01
212.2         	3.294230e-01
212.4         	3.294230e-01
212.6         	3.294230e-01
212.8         	3.294230e-01
213           	3.296802e-01
213.2         	3.296802e-01
213.4         	3.296802e-01
213.6         	3.296802e-01
213.8         	3.296802e-01
214           	3.299521e-01
214.2         	3.299521e-01
