# Region type : faceZone InSurface
# Faces  :    590
# Area   :    6.238624e+01
# Time        	areaAverage(surfaceInterpolate(mag(U)))
300           	7.896426e-01
300.2         	7.896426e-01
300.4         	7.896426e-01
300.6         	7.896426e-01
300.8         	7.896426e-01
301           	7.895675e-01
301.2         	7.895675e-01
301.4         	7.895675e-01
301.6         	7.895675e-01
301.8         	7.895675e-01
302           	7.894926e-01
302.2         	7.894926e-01
302.4         	7.894926e-01
302.6         	7.894926e-01
302.8         	7.894926e-01
303           	7.894180e-01
303.2         	7.894180e-01
303.4         	7.894180e-01
303.6         	7.894180e-01
303.8         	7.894180e-01
304           	7.893439e-01
304.2         	7.893439e-01
304.4         	7.893439e-01
304.6         	7.893439e-01
304.8         	7.893439e-01
305           	7.892702e-01
305.2         	7.892702e-01
305.4         	7.892702e-01
305.6         	7.892702e-01
305.8         	7.892702e-01
306           	7.891971e-01
306.2         	7.891971e-01
306.4         	7.891971e-01
306.6         	7.891971e-01
306.8         	7.891971e-01
307           	7.891245e-01
307.2         	7.891245e-01
307.4         	7.891245e-01
307.6         	7.891245e-01
307.8         	7.891245e-01
308           	7.890525e-01
308.2         	7.890525e-01
308.4         	7.890525e-01
308.6         	7.890525e-01
308.8         	7.890525e-01
309           	7.889809e-01
309.2         	7.889809e-01
309.4         	7.889809e-01
309.6         	7.889809e-01
309.8         	7.889809e-01
310           	7.889098e-01
310.2         	7.889098e-01
310.4         	7.889098e-01
310.6         	7.889098e-01
310.8         	7.889098e-01
311           	7.888391e-01
311.2         	7.888391e-01
311.4         	7.888391e-01
311.6         	7.888391e-01
311.8         	7.888391e-01
312           	7.887686e-01
312.2         	7.887686e-01
312.4         	7.887686e-01
312.6         	7.887686e-01
312.8         	7.887686e-01
313           	7.886983e-01
313.2         	7.886983e-01
313.4         	7.886983e-01
313.6         	7.886983e-01
313.8         	7.886983e-01
314           	7.886281e-01
314.2         	7.886281e-01
314.4         	7.886281e-01
314.6         	7.886281e-01
314.8         	7.886281e-01
315           	7.885577e-01
315.2         	7.885577e-01
315.4         	7.885577e-01
315.6         	7.885577e-01
315.8         	7.885577e-01
316           	7.884871e-01
316.2         	7.884871e-01
316.4         	7.884871e-01
316.6         	7.884871e-01
316.8         	7.884871e-01
317           	7.884162e-01
317.2         	7.884162e-01
317.4         	7.884162e-01
317.6         	7.884162e-01
317.8         	7.884162e-01
318           	7.883447e-01
318.2         	7.883447e-01
318.4         	7.883447e-01
318.6         	7.883447e-01
318.8         	7.883447e-01
319           	7.882726e-01
319.2         	7.882726e-01
319.4         	7.882726e-01
319.6         	7.882726e-01
319.8         	7.882726e-01
320           	7.881997e-01
320.2         	7.881997e-01
320.4         	7.881997e-01
320.6         	7.881997e-01
320.8         	7.881997e-01
321           	7.881259e-01
321.2         	7.881259e-01
321.4         	7.881259e-01
321.6         	7.881259e-01
321.8         	7.881259e-01
322           	7.880511e-01
322.2         	7.880511e-01
322.4         	7.880511e-01
322.6         	7.880511e-01
322.8         	7.880511e-01
323           	7.879752e-01
323.2         	7.879752e-01
323.4         	7.879752e-01
323.6         	7.879752e-01
323.8         	7.879752e-01
324           	7.878981e-01
324.2         	7.878981e-01
324.4         	7.878981e-01
324.6         	7.878981e-01
324.8         	7.878981e-01
325           	7.878198e-01
325.2         	7.878198e-01
325.4         	7.878198e-01
325.6         	7.878198e-01
325.8         	7.878198e-01
326           	7.877403e-01
326.2         	7.877403e-01
326.4         	7.877403e-01
326.6         	7.877403e-01
326.8         	7.877403e-01
327           	7.876595e-01
327.2         	7.876595e-01
327.4         	7.876595e-01
327.6         	7.876595e-01
327.8         	7.876595e-01
328           	7.875774e-01
328.2         	7.875774e-01
328.4         	7.875774e-01
328.6         	7.875774e-01
328.8         	7.875774e-01
329           	7.874941e-01
329.2         	7.874941e-01
329.4         	7.874941e-01
329.6         	7.874941e-01
329.8         	7.874941e-01
330           	7.874097e-01
330.2         	7.874097e-01
330.4         	7.874097e-01
330.6         	7.874097e-01
330.8         	7.874097e-01
331           	7.873242e-01
331.2         	7.873242e-01
331.4         	7.873242e-01
331.6         	7.873242e-01
331.8         	7.873242e-01
332           	7.872377e-01
332.2         	7.872377e-01
332.4         	7.872377e-01
332.6         	7.872377e-01
332.8         	7.872377e-01
333           	7.871505e-01
333.2         	7.871505e-01
333.4         	7.871505e-01
333.6         	7.871505e-01
333.8         	7.871505e-01
334           	7.870625e-01
334.2         	7.870625e-01
334.4         	7.870625e-01
334.6         	7.870625e-01
334.8         	7.870625e-01
335           	7.869740e-01
335.2         	7.869740e-01
335.4         	7.869740e-01
335.6         	7.869740e-01
335.8         	7.869740e-01
336           	7.868851e-01
336.2         	7.868851e-01
336.4         	7.868851e-01
336.6         	7.868851e-01
336.8         	7.868851e-01
337           	7.867960e-01
337.2         	7.867960e-01
337.4         	7.867960e-01
337.6         	7.867960e-01
337.8         	7.867960e-01
338           	7.867067e-01
338.2         	7.867067e-01
338.4         	7.867067e-01
338.6         	7.867067e-01
338.8         	7.867067e-01
339           	7.866175e-01
339.2         	7.866175e-01
339.4         	7.866175e-01
339.6         	7.866175e-01
339.8         	7.866175e-01
340           	7.865284e-01
340.2         	7.865284e-01
340.4         	7.865284e-01
340.6         	7.865284e-01
340.8         	7.865284e-01
341           	7.864395e-01
341.2         	7.864395e-01
341.4         	7.864395e-01
341.6         	7.864395e-01
341.8         	7.864395e-01
342           	7.863510e-01
342.2         	7.863510e-01
342.4         	7.863510e-01
342.6         	7.863510e-01
342.8         	7.863510e-01
343           	7.862628e-01
343.2         	7.862628e-01
343.4         	7.862628e-01
343.6         	7.862628e-01
343.8         	7.862628e-01
344           	7.861751e-01
344.2         	7.861751e-01
344.4         	7.861751e-01
344.6         	7.861751e-01
344.8         	7.861751e-01
345           	7.860879e-01
345.2         	7.860879e-01
345.4         	7.860879e-01
345.6         	7.860879e-01
345.8         	7.860879e-01
346           	7.860012e-01
346.2         	7.860012e-01
346.4         	7.860012e-01
346.6         	7.860012e-01
346.8         	7.860012e-01
347           	7.859150e-01
347.2         	7.859150e-01
347.4         	7.859150e-01
347.6         	7.859150e-01
347.8         	7.859150e-01
348           	7.858292e-01
348.2         	7.858292e-01
348.4         	7.858292e-01
348.6         	7.858292e-01
348.8         	7.858292e-01
349           	7.857438e-01
349.2         	7.857438e-01
349.4         	7.857438e-01
349.6         	7.857438e-01
349.8         	7.857438e-01
350           	7.856588e-01
350.2         	7.856588e-01
350.4         	7.856588e-01
350.6         	7.856588e-01
350.8         	7.856588e-01
351           	7.855740e-01
351.2         	7.855740e-01
351.4         	7.855740e-01
351.6         	7.855740e-01
351.8         	7.855740e-01
352           	7.854894e-01
352.2         	7.854894e-01
352.4         	7.854894e-01
352.6         	7.854894e-01
352.8         	7.854894e-01
353           	7.854049e-01
353.2         	7.854049e-01
353.4         	7.854049e-01
353.6         	7.854049e-01
353.8         	7.854049e-01
354           	7.853203e-01
354.2         	7.853203e-01
354.4         	7.853203e-01
354.6         	7.853203e-01
354.8         	7.853203e-01
355           	7.852356e-01
355.2         	7.852356e-01
355.4         	7.852356e-01
355.6         	7.852356e-01
355.8         	7.852356e-01
356           	7.851506e-01
356.2         	7.851506e-01
356.4         	7.851506e-01
356.6         	7.851506e-01
356.8         	7.851506e-01
357           	7.850652e-01
357.2         	7.850652e-01
357.4         	7.850652e-01
357.6         	7.850652e-01
357.8         	7.850652e-01
358           	7.849793e-01
358.2         	7.849793e-01
358.4         	7.849793e-01
358.6         	7.849793e-01
358.8         	7.849793e-01
359           	7.848927e-01
359.2         	7.848927e-01
359.4         	7.848927e-01
359.6         	7.848927e-01
359.8         	7.848927e-01
360           	7.848053e-01
360.2         	7.848053e-01
360.4         	7.848053e-01
360.6         	7.848053e-01
360.8         	7.848053e-01
361           	7.847171e-01
361.2         	7.847171e-01
361.4         	7.847171e-01
361.6         	7.847171e-01
361.8         	7.847171e-01
362           	7.846278e-01
362.2         	7.846278e-01
362.4         	7.846278e-01
362.6         	7.846278e-01
362.8         	7.846278e-01
363           	7.845375e-01
363.2         	7.845375e-01
363.4         	7.845375e-01
363.6         	7.845375e-01
363.8         	7.845375e-01
364           	7.844460e-01
364.2         	7.844460e-01
364.4         	7.844460e-01
364.6         	7.844460e-01
364.8         	7.844460e-01
365           	7.843532e-01
365.2         	7.843532e-01
365.4         	7.843532e-01
365.6         	7.843532e-01
365.8         	7.843532e-01
366           	7.842592e-01
366.2         	7.842592e-01
366.4         	7.842592e-01
366.6         	7.842592e-01
366.8         	7.842592e-01
367           	7.841639e-01
367.2         	7.841639e-01
367.4         	7.841639e-01
367.6         	7.841639e-01
367.8         	7.841639e-01
368           	7.840672e-01
368.2         	7.840672e-01
368.4         	7.840672e-01
368.6         	7.840672e-01
368.8         	7.840672e-01
369           	7.839692e-01
369.2         	7.839692e-01
369.4         	7.839692e-01
369.6         	7.839692e-01
369.8         	7.839692e-01
370           	7.838700e-01
370.2         	7.838700e-01
370.4         	7.838700e-01
370.6         	7.838700e-01
370.8         	7.838700e-01
371           	7.837694e-01
371.2         	7.837694e-01
371.4         	7.837694e-01
371.6         	7.837694e-01
371.8         	7.837694e-01
372           	7.836677e-01
372.2         	7.836677e-01
372.4         	7.836677e-01
372.6         	7.836677e-01
372.8         	7.836677e-01
373           	7.835648e-01
373.2         	7.835648e-01
373.4         	7.835648e-01
373.6         	7.835648e-01
373.8         	7.835648e-01
374           	7.834609e-01
374.2         	7.834609e-01
374.4         	7.834609e-01
374.6         	7.834609e-01
374.8         	7.834609e-01
375           	7.833559e-01
375.2         	7.833559e-01
375.4         	7.833559e-01
375.6         	7.833559e-01
375.8         	7.833559e-01
376           	7.832501e-01
376.2         	7.832501e-01
376.4         	7.832501e-01
376.6         	7.832501e-01
376.8         	7.832501e-01
377           	7.831435e-01
377.2         	7.831435e-01
377.4         	7.831435e-01
377.6         	7.831435e-01
377.8         	7.831435e-01
378           	7.830361e-01
378.2         	7.830361e-01
378.4         	7.830361e-01
378.6         	7.830361e-01
378.8         	7.830361e-01
379           	7.829281e-01
379.2         	7.829281e-01
379.4         	7.829281e-01
379.6         	7.829281e-01
379.8         	7.829281e-01
380           	7.828195e-01
380.2         	7.828195e-01
380.4         	7.828195e-01
380.6         	7.828195e-01
380.8         	7.828195e-01
381           	7.827105e-01
381.2         	7.827105e-01
381.4         	7.827105e-01
381.6         	7.827105e-01
381.8         	7.827105e-01
382           	7.826010e-01
382.2         	7.826010e-01
382.4         	7.826010e-01
382.6         	7.826010e-01
382.8         	7.826010e-01
383           	7.824910e-01
383.2         	7.824910e-01
383.4         	7.824910e-01
383.6         	7.824910e-01
383.8         	7.824910e-01
384           	7.823808e-01
384.2         	7.823808e-01
384.4         	7.823808e-01
384.6         	7.823808e-01
384.8         	7.823808e-01
385           	7.822702e-01
385.2         	7.822702e-01
385.4         	7.822702e-01
385.6         	7.822702e-01
385.8         	7.822702e-01
386           	7.821593e-01
386.2         	7.821593e-01
386.4         	7.821593e-01
386.6         	7.821593e-01
386.8         	7.821593e-01
387           	7.820482e-01
387.2         	7.820482e-01
387.4         	7.820482e-01
387.6         	7.820482e-01
387.8         	7.820482e-01
388           	7.819368e-01
388.2         	7.819368e-01
388.4         	7.819368e-01
388.6         	7.819368e-01
388.8         	7.819368e-01
389           	7.818251e-01
389.2         	7.818251e-01
389.4         	7.818251e-01
389.6         	7.818251e-01
389.8         	7.818251e-01
390           	7.817131e-01
390.2         	7.817131e-01
390.4         	7.817131e-01
390.6         	7.817131e-01
390.8         	7.817131e-01
391           	7.816009e-01
391.2         	7.816009e-01
391.4         	7.816009e-01
391.6         	7.816009e-01
391.8         	7.816009e-01
392           	7.814883e-01
392.2         	7.814883e-01
392.4         	7.814883e-01
392.6         	7.814883e-01
392.8         	7.814883e-01
393           	7.813753e-01
393.2         	7.813753e-01
393.4         	7.813753e-01
393.6         	7.813753e-01
393.8         	7.813753e-01
394           	7.812619e-01
394.2         	7.812619e-01
394.4         	7.812619e-01
394.6         	7.812619e-01
394.8         	7.812619e-01
395           	7.811481e-01
395.2         	7.811481e-01
395.4         	7.811481e-01
395.6         	7.811481e-01
395.8         	7.811481e-01
396           	7.810339e-01
396.2         	7.810339e-01
396.4         	7.810339e-01
396.6         	7.810339e-01
396.8         	7.810339e-01
397           	7.809191e-01
397.2         	7.809191e-01
397.4         	7.809191e-01
397.6         	7.809191e-01
397.8         	7.809191e-01
398           	7.808037e-01
398.2         	7.808037e-01
398.4         	7.808037e-01
398.6         	7.808037e-01
398.8         	7.808037e-01
399           	7.806878e-01
399.2         	7.806878e-01
399.4         	7.806878e-01
399.6         	7.806878e-01
399.8         	7.806878e-01
400           	7.805712e-01
400.2         	7.805712e-01
400.4         	7.805712e-01
400.6         	7.805712e-01
400.8         	7.805712e-01
401           	7.804539e-01
401.2         	7.804539e-01
401.4         	7.804539e-01
401.6         	7.804539e-01
401.8         	7.804539e-01
402           	7.803360e-01
402.2         	7.803360e-01
402.4         	7.803360e-01
402.6         	7.803360e-01
402.8         	7.803360e-01
403           	7.802173e-01
403.2         	7.802173e-01
403.4         	7.802173e-01
403.6         	7.802173e-01
403.8         	7.802173e-01
404           	7.800979e-01
404.2         	7.800979e-01
404.4         	7.800979e-01
404.6         	7.800979e-01
404.8         	7.800979e-01
405           	7.799778e-01
405.2         	7.799778e-01
405.4         	7.799778e-01
405.6         	7.799778e-01
405.8         	7.799778e-01
406           	7.798568e-01
406.2         	7.798568e-01
406.4         	7.798568e-01
406.6         	7.798568e-01
406.8         	7.798568e-01
407           	7.797351e-01
407.2         	7.797351e-01
407.4         	7.797351e-01
407.6         	7.797351e-01
407.8         	7.797351e-01
408           	7.796127e-01
408.2         	7.796127e-01
408.4         	7.796127e-01
408.6         	7.796127e-01
408.8         	7.796127e-01
409           	7.794895e-01
409.2         	7.794895e-01
409.4         	7.794895e-01
409.6         	7.794895e-01
409.8         	7.794895e-01
410           	7.793655e-01
410.2         	7.793655e-01
410.4         	7.793655e-01
410.6         	7.793655e-01
410.8         	7.793655e-01
411           	7.792409e-01
411.2         	7.792409e-01
411.4         	7.792409e-01
411.6         	7.792409e-01
411.8         	7.792409e-01
412           	7.791155e-01
412.2         	7.791155e-01
412.4         	7.791155e-01
412.6         	7.791155e-01
412.8         	7.791155e-01
413           	7.789895e-01
413.2         	7.789895e-01
413.4         	7.789895e-01
413.6         	7.789895e-01
413.8         	7.789895e-01
414           	7.788629e-01
414.2         	7.788629e-01
414.4         	7.788629e-01
414.6         	7.788629e-01
414.8         	7.788629e-01
415           	7.787357e-01
415.2         	7.787357e-01
415.4         	7.787357e-01
415.6         	7.787357e-01
415.8         	7.787357e-01
416           	7.786079e-01
416.2         	7.786079e-01
416.4         	7.786079e-01
416.6         	7.786079e-01
416.8         	7.786079e-01
417           	7.784796e-01
417.2         	7.784796e-01
417.4         	7.784796e-01
417.6         	7.784796e-01
417.8         	7.784796e-01
418           	7.783508e-01
418.2         	7.783508e-01
418.4         	7.783508e-01
418.6         	7.783508e-01
418.8         	7.783508e-01
419           	7.782215e-01
419.2         	7.782215e-01
419.4         	7.782215e-01
419.6         	7.782215e-01
419.8         	7.782215e-01
420           	7.780918e-01
420.2         	7.780918e-01
420.4         	7.780918e-01
420.6         	7.780918e-01
420.8         	7.780918e-01
421           	7.779616e-01
421.2         	7.779616e-01
421.4         	7.779616e-01
421.6         	7.779616e-01
421.8         	7.779616e-01
422           	7.778310e-01
422.2         	7.778310e-01
422.4         	7.778310e-01
422.6         	7.778310e-01
422.8         	7.778310e-01
423           	7.777000e-01
423.2         	7.777000e-01
423.4         	7.777000e-01
423.6         	7.777000e-01
423.8         	7.777000e-01
424           	7.775686e-01
424.2         	7.775686e-01
424.4         	7.775686e-01
424.6         	7.775686e-01
424.8         	7.775686e-01
425           	7.774368e-01
425.2         	7.774368e-01
425.4         	7.774368e-01
425.6         	7.774368e-01
425.8         	7.774368e-01
426           	7.773046e-01
426.2         	7.773046e-01
426.4         	7.773046e-01
426.6         	7.773046e-01
426.8         	7.773046e-01
427           	7.771720e-01
427.2         	7.771720e-01
427.4         	7.771720e-01
427.6         	7.771720e-01
427.8         	7.771720e-01
428           	7.770390e-01
428.2         	7.770390e-01
428.4         	7.770390e-01
428.6         	7.770390e-01
428.8         	7.770390e-01
429           	7.769055e-01
429.2         	7.769055e-01
429.4         	7.769055e-01
429.6         	7.769055e-01
429.8         	7.769055e-01
430           	7.767716e-01
430.2         	7.767716e-01
430.4         	7.767716e-01
430.6         	7.767716e-01
430.8         	7.767716e-01
431           	7.766373e-01
431.2         	7.766373e-01
431.4         	7.766373e-01
431.6         	7.766373e-01
431.8         	7.766373e-01
432           	7.765024e-01
432.2         	7.765024e-01
432.4         	7.765024e-01
432.6         	7.765024e-01
432.8         	7.765024e-01
433           	7.763671e-01
433.2         	7.763671e-01
433.4         	7.763671e-01
433.6         	7.763671e-01
433.8         	7.763671e-01
434           	7.762312e-01
434.2         	7.762312e-01
434.4         	7.762312e-01
434.6         	7.762312e-01
434.8         	7.762312e-01
435           	7.760948e-01
435.2         	7.760948e-01
435.4         	7.760948e-01
435.6         	7.760948e-01
435.8         	7.760948e-01
436           	7.759579e-01
436.2         	7.759579e-01
436.4         	7.759579e-01
436.6         	7.759579e-01
436.8         	7.759579e-01
437           	7.758203e-01
437.2         	7.758203e-01
437.4         	7.758203e-01
437.6         	7.758203e-01
437.8         	7.758203e-01
438           	7.756823e-01
438.2         	7.756823e-01
438.4         	7.756823e-01
438.6         	7.756823e-01
438.8         	7.756823e-01
439           	7.755436e-01
439.2         	7.755436e-01
439.4         	7.755436e-01
439.6         	7.755436e-01
439.8         	7.755436e-01
440           	7.754043e-01
440.2         	7.754043e-01
440.4         	7.754043e-01
440.6         	7.754043e-01
440.8         	7.754043e-01
441           	7.752645e-01
441.2         	7.752645e-01
441.4         	7.752645e-01
441.6         	7.752645e-01
441.8         	7.752645e-01
442           	7.751241e-01
442.2         	7.751241e-01
442.4         	7.751241e-01
442.6         	7.751241e-01
442.8         	7.751241e-01
443           	7.749832e-01
443.2         	7.749832e-01
443.4         	7.749832e-01
443.6         	7.749832e-01
443.8         	7.749832e-01
444           	7.748417e-01
444.2         	7.748417e-01
444.4         	7.748417e-01
444.6         	7.748417e-01
444.8         	7.748417e-01
445           	7.746998e-01
445.2         	7.746998e-01
445.4         	7.746998e-01
445.6         	7.746998e-01
445.8         	7.746998e-01
446           	7.745574e-01
446.2         	7.745574e-01
446.4         	7.745574e-01
446.6         	7.745574e-01
446.8         	7.745574e-01
447           	7.744146e-01
447.2         	7.744146e-01
447.4         	7.744146e-01
447.6         	7.744146e-01
447.8         	7.744146e-01
448           	7.742715e-01
448.2         	7.742715e-01
448.4         	7.742715e-01
448.6         	7.742715e-01
448.8         	7.742715e-01
449           	7.741280e-01
449.2         	7.741280e-01
449.4         	7.741280e-01
449.6         	7.741280e-01
449.8         	7.741280e-01
450           	7.739842e-01
450.2         	7.739842e-01
450.4         	7.739842e-01
450.6         	7.739842e-01
450.8         	7.739842e-01
451           	7.738402e-01
451.2         	7.738402e-01
451.4         	7.738402e-01
451.6         	7.738402e-01
451.8         	7.738402e-01
452           	7.736960e-01
452.2         	7.736960e-01
452.4         	7.736960e-01
452.6         	7.736960e-01
452.8         	7.736960e-01
453           	7.735517e-01
453.2         	7.735517e-01
453.4         	7.735517e-01
453.6         	7.735517e-01
453.8         	7.735517e-01
454           	7.734074e-01
454.2         	7.734074e-01
454.4         	7.734074e-01
454.6         	7.734074e-01
454.8         	7.734074e-01
455           	7.732630e-01
455.2         	7.732630e-01
455.4         	7.732630e-01
455.6         	7.732630e-01
455.8         	7.732630e-01
456           	7.731187e-01
456.2         	7.731187e-01
456.4         	7.731187e-01
456.6         	7.731187e-01
456.8         	7.731187e-01
457           	7.729745e-01
457.2         	7.729745e-01
457.4         	7.729745e-01
457.6         	7.729745e-01
457.8         	7.729745e-01
458           	7.728304e-01
458.2         	7.728304e-01
458.4         	7.728304e-01
458.6         	7.728304e-01
458.8         	7.728304e-01
459           	7.726865e-01
459.2         	7.726865e-01
459.4         	7.726865e-01
459.6         	7.726865e-01
459.8         	7.726865e-01
460           	7.725429e-01
460.2         	7.725429e-01
460.4         	7.725429e-01
460.6         	7.725429e-01
460.8         	7.725429e-01
461           	7.723994e-01
461.2         	7.723994e-01
461.4         	7.723994e-01
461.6         	7.723994e-01
461.8         	7.723994e-01
462           	7.722562e-01
462.2         	7.722562e-01
462.4         	7.722562e-01
462.6         	7.722562e-01
462.8         	7.722562e-01
463           	7.721134e-01
463.2         	7.721134e-01
463.4         	7.721134e-01
463.6         	7.721134e-01
463.8         	7.721134e-01
464           	7.719708e-01
464.2         	7.719708e-01
464.4         	7.719708e-01
464.6         	7.719708e-01
464.8         	7.719708e-01
465           	7.718284e-01
465.2         	7.718284e-01
465.4         	7.718284e-01
465.6         	7.718284e-01
465.8         	7.718284e-01
466           	7.716864e-01
466.2         	7.716864e-01
466.4         	7.716864e-01
466.6         	7.716864e-01
466.8         	7.716864e-01
467           	7.715446e-01
467.2         	7.715446e-01
467.4         	7.715446e-01
467.6         	7.715446e-01
467.8         	7.715446e-01
468           	7.714030e-01
468.2         	7.714030e-01
468.4         	7.714030e-01
468.6         	7.714030e-01
468.8         	7.714030e-01
469           	7.712616e-01
469.2         	7.712616e-01
469.4         	7.712616e-01
469.6         	7.712616e-01
469.8         	7.712616e-01
470           	7.711203e-01
470.2         	7.711203e-01
470.4         	7.711203e-01
470.6         	7.711203e-01
470.8         	7.711203e-01
471           	7.709790e-01
471.2         	7.709790e-01
471.4         	7.709790e-01
471.6         	7.709790e-01
471.8         	7.709790e-01
472           	7.708376e-01
472.2         	7.708376e-01
472.4         	7.708376e-01
472.6         	7.708376e-01
472.8         	7.708376e-01
473           	7.706960e-01
473.2         	7.706960e-01
473.4         	7.706960e-01
473.6         	7.706960e-01
473.8         	7.706960e-01
474           	7.705539e-01
474.2         	7.705539e-01
474.4         	7.705539e-01
474.6         	7.705539e-01
474.8         	7.705539e-01
475           	7.704112e-01
475.2         	7.704112e-01
475.4         	7.704112e-01
475.6         	7.704112e-01
475.8         	7.704112e-01
476           	7.702676e-01
476.2         	7.702676e-01
476.4         	7.702676e-01
476.6         	7.702676e-01
476.8         	7.702676e-01
477           	7.701228e-01
477.2         	7.701228e-01
