# Force coefficients
# liftDir       : (0.00000000e+00 1.00000000e+00 0.00000000e+00)
# dragDir       : (1.00000000e+00 0.00000000e+00 0.00000000e+00)
# pitchAxis     : (0.00000000e+00 0.00000000e+00 1.00000000e+00)
# magUInf       : 1.00000000e+00
# lRef          : 3.14000000e+00
# Aref          : 3.14000000e+00
# CofR          : (0.00000000e+00 0.00000000e+00 0.00000000e+00)
# Time          	Cm              	Cd              	Cl              	Cl(f)           	Cl(r)           
50              	1.42123308e-04	1.06508773e+00	-4.69035734e-01	-2.34375744e-01	-2.34659991e-01
50.002          	1.41081260e-04	1.06503708e+00	-4.69922591e-01	-2.34820214e-01	-2.35102377e-01
50.004          	1.40211078e-04	1.06526141e+00	-4.70419773e-01	-2.35069676e-01	-2.35350098e-01
50.006          	1.39344112e-04	1.06530692e+00	-4.71168452e-01	-2.35444882e-01	-2.35723570e-01
50.008          	1.38544154e-04	1.06548153e+00	-4.71944512e-01	-2.35833712e-01	-2.36110800e-01
50.01           	1.37455233e-04	1.06549416e+00	-4.72470188e-01	-2.36097639e-01	-2.36372549e-01
50.012          	1.36417817e-04	1.06552412e+00	-4.72815414e-01	-2.36271289e-01	-2.36544125e-01
50.014          	1.35786919e-04	1.06558497e+00	-4.73619698e-01	-2.36674062e-01	-2.36945636e-01
50.016          	1.35013146e-04	1.06568910e+00	-4.74445366e-01	-2.37087670e-01	-2.37357696e-01
50.018          	1.33955576e-04	1.06563777e+00	-4.75214148e-01	-2.37473119e-01	-2.37741030e-01
50.02           	1.32667295e-04	1.06570799e+00	-4.75798410e-01	-2.37766537e-01	-2.38031872e-01
50.022          	1.31494410e-04	1.06554186e+00	-4.76556690e-01	-2.38146850e-01	-2.38409839e-01
50.024          	1.30526340e-04	1.06572913e+00	-4.77556441e-01	-2.38647694e-01	-2.38908747e-01
50.026          	1.29550766e-04	1.06602304e+00	-4.78421388e-01	-2.39081143e-01	-2.39340245e-01
50.028          	1.29122990e-04	1.06635879e+00	-4.79582739e-01	-2.39662246e-01	-2.39920492e-01
50.03           	1.28711298e-04	1.06645733e+00	-4.80538731e-01	-2.40140654e-01	-2.40398077e-01
50.032          	1.27685496e-04	1.06660690e+00	-4.81054339e-01	-2.40399484e-01	-2.40654855e-01
50.034          	1.26330877e-04	1.06676859e+00	-4.81703777e-01	-2.40725558e-01	-2.40978220e-01
50.036          	1.24666187e-04	1.06699266e+00	-4.82437670e-01	-2.41094169e-01	-2.41343501e-01
50.038          	1.22932280e-04	1.06738089e+00	-4.82959301e-01	-2.41356718e-01	-2.41602583e-01
50.04           	1.20855418e-04	1.06748162e+00	-4.83673622e-01	-2.41715955e-01	-2.41957666e-01
50.042          	1.19287630e-04	1.06751584e+00	-4.84415106e-01	-2.42088265e-01	-2.42326841e-01
50.044          	1.18246525e-04	1.06758289e+00	-4.85002159e-01	-2.42382833e-01	-2.42619326e-01
50.046          	1.17463424e-04	1.06778100e+00	-4.85533338e-01	-2.42649205e-01	-2.42884132e-01
50.048          	1.16595186e-04	1.06792812e+00	-4.86584088e-01	-2.43175449e-01	-2.43408639e-01
50.05           	1.16269088e-04	1.06780751e+00	-4.87331125e-01	-2.43549293e-01	-2.43781832e-01
50.052          	1.16592796e-04	1.06797752e+00	-4.88274252e-01	-2.44020533e-01	-2.44253719e-01
50.054          	1.16728238e-04	1.06844117e+00	-4.89025799e-01	-2.44396171e-01	-2.44629628e-01
50.056          	1.16756750e-04	1.06835645e+00	-4.89716354e-01	-2.44741420e-01	-2.44974934e-01
50.058          	1.16431399e-04	1.06854900e+00	-4.90403006e-01	-2.45085072e-01	-2.45317935e-01
50.06           	1.15971687e-04	1.06862262e+00	-4.91190179e-01	-2.45479118e-01	-2.45711061e-01
50.062          	1.15246827e-04	1.06892663e+00	-4.91970800e-01	-2.45870153e-01	-2.46100647e-01
50.064          	1.14482997e-04	1.06904408e+00	-4.92469732e-01	-2.46120383e-01	-2.46349349e-01
50.066          	1.13731987e-04	1.06910364e+00	-4.92912776e-01	-2.46342656e-01	-2.46570120e-01
50.068          	1.12994309e-04	1.06915828e+00	-4.93838871e-01	-2.46806441e-01	-2.47032430e-01
50.07           	1.12431098e-04	1.06914895e+00	-4.94582798e-01	-2.47178968e-01	-2.47403830e-01
50.072          	1.11322943e-04	1.06940487e+00	-4.95078920e-01	-2.47428137e-01	-2.47650783e-01
50.074          	1.10017222e-04	1.06950051e+00	-4.95917511e-01	-2.47848738e-01	-2.48068773e-01
50.076          	1.09057772e-04	1.06957355e+00	-4.96527914e-01	-2.48154899e-01	-2.48373015e-01
50.078          	1.07916195e-04	1.06967279e+00	-4.97469688e-01	-2.48626928e-01	-2.48842760e-01
50.08           	1.06752949e-04	1.06987543e+00	-4.98524090e-01	-2.49155292e-01	-2.49368798e-01
50.082          	1.06430215e-04	1.06984104e+00	-4.99307043e-01	-2.49547091e-01	-2.49759952e-01
50.084          	1.05958709e-04	1.06984236e+00	-4.99817835e-01	-2.49802959e-01	-2.50014876e-01
50.086          	1.05324343e-04	1.06980539e+00	-5.00474385e-01	-2.50131868e-01	-2.50342517e-01
50.088          	1.05368205e-04	1.06979620e+00	-5.00858358e-01	-2.50323811e-01	-2.50534547e-01
50.09           	1.05444889e-04	1.07000570e+00	-5.01628307e-01	-2.50708709e-01	-2.50919599e-01
50.092          	1.05385326e-04	1.07004823e+00	-5.02305397e-01	-2.51047313e-01	-2.51258084e-01
50.094          	1.04963682e-04	1.07000559e+00	-5.03056231e-01	-2.51423152e-01	-2.51633079e-01
50.096          	1.04398366e-04	1.07020496e+00	-5.03558885e-01	-2.51675044e-01	-2.51883841e-01
50.098          	1.03796016e-04	1.07039536e+00	-5.04350723e-01	-2.52071565e-01	-2.52279157e-01
50.1            	1.02839730e-04	1.07042180e+00	-5.05015685e-01	-2.52405003e-01	-2.52610682e-01
50.102          	1.01605370e-04	1.07091229e+00	-5.05759830e-01	-2.52778310e-01	-2.52981520e-01
50.104          	1.00589120e-04	1.07075388e+00	-5.06591957e-01	-2.53195389e-01	-2.53396567e-01
50.106          	9.94983331e-05	1.07087146e+00	-5.07463931e-01	-2.53632467e-01	-2.53831464e-01
50.108          	9.82279780e-05	1.07073060e+00	-5.08099809e-01	-2.53951677e-01	-2.54148133e-01
50.11           	9.70593699e-05	1.07098919e+00	-5.08718795e-01	-2.54262338e-01	-2.54456457e-01
50.112          	9.61152331e-05	1.07100543e+00	-5.09598111e-01	-2.54702940e-01	-2.54895171e-01
50.114          	9.48859511e-05	1.07094516e+00	-5.10386180e-01	-2.55098204e-01	-2.55287976e-01
50.116          	9.35674639e-05	1.07099874e+00	-5.10846013e-01	-2.55329439e-01	-2.55516574e-01
50.118          	9.29303662e-05	1.07126782e+00	-5.11712997e-01	-2.55763568e-01	-2.55949429e-01
50.12           	9.27380779e-05	1.07139338e+00	-5.12326359e-01	-2.56070441e-01	-2.56255917e-01
50.122          	9.31396349e-05	1.07169437e+00	-5.12970522e-01	-2.56392121e-01	-2.56578400e-01
50.124          	9.40151037e-05	1.07155649e+00	-5.13737517e-01	-2.56774743e-01	-2.56962773e-01
50.126          	9.54231472e-05	1.07167702e+00	-5.14401128e-01	-2.57105141e-01	-2.57295987e-01
50.128          	9.67651522e-05	1.07154999e+00	-5.15106363e-01	-2.57456417e-01	-2.57649947e-01
50.13           	9.76652701e-05	1.07160789e+00	-5.15797354e-01	-2.57801012e-01	-2.57996342e-01
50.132          	9.79686978e-05	1.07178636e+00	-5.16572245e-01	-2.58188154e-01	-2.58384091e-01
50.134          	9.80240026e-05	1.07159033e+00	-5.17666093e-01	-2.58735023e-01	-2.58931071e-01
50.136          	9.80337152e-05	1.07164563e+00	-5.18640722e-01	-2.59222327e-01	-2.59418395e-01
50.138          	9.82481511e-05	1.07180309e+00	-5.19289236e-01	-2.59546370e-01	-2.59742866e-01
50.14           	9.83336810e-05	1.07215448e+00	-5.19870068e-01	-2.59836700e-01	-2.60033367e-01
50.142          	9.84499248e-05	1.07241247e+00	-5.20526895e-01	-2.60164998e-01	-2.60361897e-01
50.144          	9.83307716e-05	1.07247303e+00	-5.21244208e-01	-2.60523773e-01	-2.60720435e-01
50.146          	9.81567711e-05	1.07214581e+00	-5.21725442e-01	-2.60764564e-01	-2.60960878e-01
50.148          	9.84415107e-05	1.07224579e+00	-5.22294917e-01	-2.61049017e-01	-2.61245900e-01
50.15           	9.85742506e-05	1.07224243e+00	-5.22795620e-01	-2.61299236e-01	-2.61496384e-01
50.152          	9.84514016e-05	1.07226728e+00	-5.23662844e-01	-2.61732971e-01	-2.61929873e-01
50.154          	9.83411377e-05	1.07279594e+00	-5.24473336e-01	-2.62138327e-01	-2.62335009e-01
50.156          	9.82761249e-05	1.07321525e+00	-5.25350480e-01	-2.62576964e-01	-2.62773516e-01
50.158          	9.81495142e-05	1.07333252e+00	-5.25991822e-01	-2.62897762e-01	-2.63094061e-01
50.16           	9.81035267e-05	1.07327750e+00	-5.26675349e-01	-2.63239571e-01	-2.63435778e-01
50.162          	9.77940990e-05	1.07363742e+00	-5.27347624e-01	-2.63576018e-01	-2.63771606e-01
50.164          	9.75297958e-05	1.07367489e+00	-5.27955212e-01	-2.63880076e-01	-2.64075136e-01
50.166          	9.76360417e-05	1.07390512e+00	-5.28739361e-01	-2.64272044e-01	-2.64467317e-01
50.168          	9.73021722e-05	1.07428746e+00	-5.29737358e-01	-2.64771377e-01	-2.64965981e-01
50.17           	9.69760871e-05	1.07431027e+00	-5.30610156e-01	-2.65208102e-01	-2.65402054e-01
50.172          	9.66545467e-05	1.07441325e+00	-5.31415629e-01	-2.65611160e-01	-2.65804469e-01
50.174          	9.63967765e-05	1.07429840e+00	-5.32169262e-01	-2.65988234e-01	-2.66181028e-01
50.176          	9.61579023e-05	1.07428371e+00	-5.32813596e-01	-2.66310640e-01	-2.66502956e-01
50.178          	9.57787109e-05	1.07444240e+00	-5.33573284e-01	-2.66690863e-01	-2.66882420e-01
50.18           	9.56589400e-05	1.07452755e+00	-5.34506950e-01	-2.67157816e-01	-2.67349134e-01
50.182          	9.53570912e-05	1.07477127e+00	-5.35391226e-01	-2.67600256e-01	-2.67790970e-01
50.184          	9.49515545e-05	1.07512553e+00	-5.36387179e-01	-2.68098638e-01	-2.68288541e-01
50.186          	9.48426564e-05	1.07504484e+00	-5.37325159e-01	-2.68567737e-01	-2.68757422e-01
50.188          	9.52315429e-05	1.07478286e+00	-5.38071975e-01	-2.68940756e-01	-2.69131219e-01
50.19           	9.52632219e-05	1.07476051e+00	-5.38892763e-01	-2.69351118e-01	-2.69541645e-01
50.192          	9.52323974e-05	1.07494777e+00	-5.39718688e-01	-2.69764112e-01	-2.69954577e-01
50.194          	9.53457355e-05	1.07495692e+00	-5.40519638e-01	-2.70164473e-01	-2.70355165e-01
50.196          	9.48588795e-05	1.07540521e+00	-5.41213172e-01	-2.70511727e-01	-2.70701445e-01
50.198          	9.43824192e-05	1.07580001e+00	-5.41711723e-01	-2.70761479e-01	-2.70950244e-01
50.2            	9.38966061e-05	1.07588991e+00	-5.42136621e-01	-2.70974414e-01	-2.71162207e-01
50.202          	9.35262905e-05	1.07582405e+00	-5.42838778e-01	-2.71325863e-01	-2.71512915e-01
50.204          	9.32920258e-05	1.07562659e+00	-5.43584021e-01	-2.71698719e-01	-2.71885303e-01
50.206          	9.33888303e-05	1.07545133e+00	-5.44274553e-01	-2.72043888e-01	-2.72230665e-01
50.208          	9.36593241e-05	1.07545570e+00	-5.44946647e-01	-2.72379664e-01	-2.72566983e-01
50.21           	9.39386777e-05	1.07545741e+00	-5.45560879e-01	-2.72686501e-01	-2.72874378e-01
50.212          	9.40646832e-05	1.07564815e+00	-5.46498292e-01	-2.73155081e-01	-2.73343211e-01
50.214          	9.41537238e-05	1.07585995e+00	-5.46768713e-01	-2.73290203e-01	-2.73478510e-01
50.216          	9.42495677e-05	1.07610368e+00	-5.47549484e-01	-2.73680492e-01	-2.73868991e-01
50.218          	9.41563913e-05	1.07605817e+00	-5.48252553e-01	-2.74032120e-01	-2.74220433e-01
50.22           	9.43710035e-05	1.07577315e+00	-5.49156934e-01	-2.74484096e-01	-2.74672838e-01
50.222          	9.44851947e-05	1.07586377e+00	-5.49574783e-01	-2.74692906e-01	-2.74881876e-01
50.224          	9.45550782e-05	1.07617868e+00	-5.50013777e-01	-2.74912333e-01	-2.75101443e-01
50.226          	9.47700595e-05	1.07592026e+00	-5.50565555e-01	-2.75188007e-01	-2.75377547e-01
50.228          	9.55499535e-05	1.07582122e+00	-5.51026763e-01	-2.75417832e-01	-2.75608932e-01
50.23           	9.65842635e-05	1.07580497e+00	-5.51562896e-01	-2.75684864e-01	-2.75878032e-01
50.232          	9.76199840e-05	1.07605441e+00	-5.51814695e-01	-2.75809727e-01	-2.76004967e-01
50.234          	9.79644059e-05	1.07594686e+00	-5.52367672e-01	-2.76085872e-01	-2.76281800e-01
50.236          	9.82417478e-05	1.07615199e+00	-5.52847070e-01	-2.76325293e-01	-2.76521777e-01
50.238          	9.86336346e-05	1.07597803e+00	-5.53662716e-01	-2.76732724e-01	-2.76929992e-01
50.24           	9.90210030e-05	1.07618561e+00	-5.54248807e-01	-2.77025383e-01	-2.77223425e-01
50.242          	9.96720529e-05	1.07638221e+00	-5.55059158e-01	-2.77429907e-01	-2.77629251e-01
50.244          	1.00359326e-04	1.07629433e+00	-5.55704021e-01	-2.77751651e-01	-2.77952370e-01
50.246          	1.01323739e-04	1.07634183e+00	-5.56266301e-01	-2.78031827e-01	-2.78234474e-01
50.248          	1.02086877e-04	1.07644135e+00	-5.56663371e-01	-2.78229599e-01	-2.78433772e-01
50.25           	1.02924493e-04	1.07636551e+00	-5.57466077e-01	-2.78630114e-01	-2.78835963e-01
50.252          	1.03965604e-04	1.07652531e+00	-5.58059257e-01	-2.78925663e-01	-2.79133594e-01
50.254          	1.04951341e-04	1.07668240e+00	-5.58533921e-01	-2.79162009e-01	-2.79371912e-01
50.256          	1.05690684e-04	1.07656389e+00	-5.59052630e-01	-2.79420624e-01	-2.79632006e-01
50.258          	1.06582563e-04	1.07628334e+00	-5.59766572e-01	-2.79776704e-01	-2.79989869e-01
50.26           	1.07512349e-04	1.07603322e+00	-5.60445717e-01	-2.80115346e-01	-2.80330371e-01
50.262          	1.08756401e-04	1.07562865e+00	-5.61087442e-01	-2.80434965e-01	-2.80652478e-01
50.264          	1.09695272e-04	1.07591529e+00	-5.61574302e-01	-2.80677456e-01	-2.80896846e-01
50.266          	1.10185742e-04	1.07597292e+00	-5.62112406e-01	-2.80946017e-01	-2.81166389e-01
50.268          	1.10562351e-04	1.07565292e+00	-5.62724620e-01	-2.81251748e-01	-2.81472872e-01
50.27           	1.11092531e-04	1.07542180e+00	-5.63155435e-01	-2.81466625e-01	-2.81688810e-01
50.272          	1.11604742e-04	1.07571249e+00	-5.63760451e-01	-2.81768621e-01	-2.81991830e-01
50.274          	1.11903614e-04	1.07583241e+00	-5.64495329e-01	-2.82135761e-01	-2.82359568e-01
50.276          	1.12305508e-04	1.07582549e+00	-5.64876929e-01	-2.82326159e-01	-2.82550770e-01
50.278          	1.12512476e-04	1.07584420e+00	-5.65370255e-01	-2.82572615e-01	-2.82797640e-01
50.28           	1.12409086e-04	1.07575710e+00	-5.65917458e-01	-2.82846320e-01	-2.83071138e-01
50.282          	1.12362067e-04	1.07534762e+00	-5.66690125e-01	-2.83232700e-01	-2.83457424e-01
50.284          	1.12449068e-04	1.07517814e+00	-5.67094772e-01	-2.83434937e-01	-2.83659835e-01
50.286          	1.12688009e-04	1.07514423e+00	-5.67705026e-01	-2.83739825e-01	-2.83965201e-01
50.288          	1.12967262e-04	1.07502674e+00	-5.68240749e-01	-2.84007407e-01	-2.84233342e-01
50.29           	1.12759211e-04	1.07536075e+00	-5.68768017e-01	-2.84271249e-01	-2.84496767e-01
50.292          	1.12201255e-04	1.07536355e+00	-5.69722040e-01	-2.84748819e-01	-2.84973221e-01
50.294          	1.11486393e-04	1.07551703e+00	-5.70401788e-01	-2.85089407e-01	-2.85312380e-01
50.296          	1.11201413e-04	1.07547568e+00	-5.70995298e-01	-2.85386448e-01	-2.85608851e-01
50.298          	1.11571332e-04	1.07548085e+00	-5.71499021e-01	-2.85637939e-01	-2.85861082e-01
50.3            	1.11742886e-04	1.07545106e+00	-5.71958152e-01	-2.85867333e-01	-2.86090819e-01
50.302          	1.11791274e-04	1.07544790e+00	-5.72447780e-01	-2.86112099e-01	-2.86335681e-01
50.304          	1.12045258e-04	1.07563157e+00	-5.72712298e-01	-2.86244104e-01	-2.86468194e-01
50.306          	1.12514924e-04	1.07564217e+00	-5.72768369e-01	-2.86271669e-01	-2.86496699e-01
50.308          	1.13038789e-04	1.07615492e+00	-5.73021325e-01	-2.86397624e-01	-2.86623701e-01
50.31           	1.13616021e-04	1.07611217e+00	-5.73826636e-01	-2.86799702e-01	-2.87026934e-01
50.312          	1.13702786e-04	1.07606292e+00	-5.74637789e-01	-2.87205192e-01	-2.87432597e-01
50.314          	1.13869348e-04	1.07569489e+00	-5.75084638e-01	-2.87428450e-01	-2.87656188e-01
50.316          	1.14353441e-04	1.07547574e+00	-5.75630543e-01	-2.87700918e-01	-2.87929625e-01
50.318          	1.15424389e-04	1.07563792e+00	-5.76359704e-01	-2.88064428e-01	-2.88295277e-01
50.32           	1.16533997e-04	1.07597016e+00	-5.76630787e-01	-2.88198860e-01	-2.88431928e-01
50.322          	1.17526785e-04	1.07639963e+00	-5.76816858e-01	-2.88290902e-01	-2.88525956e-01
50.324          	1.18893363e-04	1.07679150e+00	-5.77150225e-01	-2.88456219e-01	-2.88694006e-01
50.326          	1.20578366e-04	1.07705190e+00	-5.77610754e-01	-2.88684799e-01	-2.88925955e-01
50.328          	1.22313223e-04	1.07742700e+00	-5.77822805e-01	-2.88789089e-01	-2.89033716e-01
50.33           	1.23958800e-04	1.07752256e+00	-5.78230634e-01	-2.88991358e-01	-2.89239276e-01
50.332          	1.25557940e-04	1.07733794e+00	-5.78723310e-01	-2.89236097e-01	-2.89487213e-01
50.334          	1.27034023e-04	1.07702014e+00	-5.79012260e-01	-2.89379096e-01	-2.89633164e-01
50.336          	1.28199859e-04	1.07715854e+00	-5.79193873e-01	-2.89468736e-01	-2.89725136e-01
50.338          	1.28908265e-04	1.07750293e+00	-5.79331171e-01	-2.89536677e-01	-2.89794494e-01
50.34           	1.29516178e-04	1.07740203e+00	-5.79444070e-01	-2.89592519e-01	-2.89851551e-01
50.342          	1.29703445e-04	1.07726298e+00	-5.79589264e-01	-2.89664928e-01	-2.89924335e-01
50.344          	1.29530844e-04	1.07731201e+00	-5.79762600e-01	-2.89751769e-01	-2.90010831e-01
50.346          	1.28915907e-04	1.07720490e+00	-5.80128772e-01	-2.89935470e-01	-2.90193302e-01
50.348          	1.27911952e-04	1.07687293e+00	-5.80477442e-01	-2.90110809e-01	-2.90366633e-01
50.35           	1.26861820e-04	1.07699433e+00	-5.80790715e-01	-2.90268495e-01	-2.90522219e-01
50.352          	1.25988478e-04	1.07673985e+00	-5.81416516e-01	-2.90582270e-01	-2.90834246e-01
50.354          	1.25567155e-04	1.07658789e+00	-5.81710001e-01	-2.90729434e-01	-2.90980568e-01
50.356          	1.25235918e-04	1.07677176e+00	-5.82088862e-01	-2.90919195e-01	-2.91169667e-01
50.358          	1.24596028e-04	1.07668090e+00	-5.82420408e-01	-2.91085608e-01	-2.91334800e-01
50.36           	1.23942119e-04	1.07654441e+00	-5.83033690e-01	-2.91392903e-01	-2.91640787e-01
50.362          	1.23226621e-04	1.07619753e+00	-5.83819291e-01	-2.91786419e-01	-2.92032872e-01
50.364          	1.22683500e-04	1.07569483e+00	-5.84609528e-01	-2.92182080e-01	-2.92427447e-01
50.366          	1.22396559e-04	1.07619696e+00	-5.85221793e-01	-2.92488500e-01	-2.92733293e-01
50.368          	1.21656291e-04	1.07651669e+00	-5.85568842e-01	-2.92662765e-01	-2.92906077e-01
50.37           	1.21086695e-04	1.07669732e+00	-5.86116316e-01	-2.92937071e-01	-2.93179245e-01
50.372          	1.20480614e-04	1.07628747e+00	-5.86506719e-01	-2.93132879e-01	-2.93373840e-01
50.374          	1.20200518e-04	1.07620044e+00	-5.87144533e-01	-2.93452066e-01	-2.93692467e-01
50.376          	1.20218858e-04	1.07641084e+00	-5.87592353e-01	-2.93675958e-01	-2.93916396e-01
50.378          	1.20637348e-04	1.07628953e+00	-5.88196463e-01	-2.93977594e-01	-2.94218869e-01
50.38           	1.21172211e-04	1.07643159e+00	-5.88691191e-01	-2.94224423e-01	-2.94466767e-01
50.382          	1.21385981e-04	1.07685829e+00	-5.88957282e-01	-2.94357255e-01	-2.94600027e-01
50.384          	1.21837833e-04	1.07710888e+00	-5.89682341e-01	-2.94719332e-01	-2.94963008e-01
50.386          	1.22589342e-04	1.07706800e+00	-5.90551267e-01	-2.95153044e-01	-2.95398223e-01
50.388          	1.23294267e-04	1.07674405e+00	-5.90851582e-01	-2.95302497e-01	-2.95549085e-01
50.39           	1.24028762e-04	1.07717119e+00	-5.91189021e-01	-2.95470482e-01	-2.95718539e-01
50.392          	1.24719146e-04	1.07745432e+00	-5.91573200e-01	-2.95661881e-01	-2.95911319e-01
50.394          	1.25208635e-04	1.07733987e+00	-5.91988051e-01	-2.95868817e-01	-2.96119234e-01
50.396          	1.25775245e-04	1.07762678e+00	-5.92135972e-01	-2.95942211e-01	-2.96193761e-01
50.398          	1.26502422e-04	1.07745394e+00	-5.92497708e-01	-2.96122351e-01	-2.96375356e-01
50.4            	1.27315878e-04	1.07772522e+00	-5.93028084e-01	-2.96386726e-01	-2.96641358e-01
50.402          	1.28197798e-04	1.07781467e+00	-5.93523172e-01	-2.96633388e-01	-2.96889784e-01
50.404          	1.28861833e-04	1.07798726e+00	-5.93906764e-01	-2.96824520e-01	-2.97082244e-01
50.406          	1.29375221e-04	1.07837899e+00	-5.94439053e-01	-2.97090151e-01	-2.97348902e-01
50.408          	1.30052996e-04	1.07866681e+00	-5.95095900e-01	-2.97417897e-01	-2.97678003e-01
50.41           	1.30713457e-04	1.07863639e+00	-5.95715155e-01	-2.97726864e-01	-2.97988291e-01
50.412          	1.31105030e-04	1.07895988e+00	-5.95900454e-01	-2.97819122e-01	-2.98081332e-01
50.414          	1.31362266e-04	1.07915771e+00	-5.96055148e-01	-2.97896212e-01	-2.98158936e-01
50.416          	1.31809588e-04	1.07884143e+00	-5.96452471e-01	-2.98094426e-01	-2.98358045e-01
50.418          	1.32634077e-04	1.07886007e+00	-5.96346375e-01	-2.98040553e-01	-2.98305822e-01
50.42           	1.33464792e-04	1.07901589e+00	-5.96300437e-01	-2.98016754e-01	-2.98283683e-01
50.422          	1.34318115e-04	1.07912968e+00	-5.96467056e-01	-2.98099210e-01	-2.98367846e-01
50.424          	1.35250377e-04	1.07926029e+00	-5.96277560e-01	-2.98003530e-01	-2.98274030e-01
50.426          	1.36260703e-04	1.07925805e+00	-5.96232852e-01	-2.97980165e-01	-2.98252687e-01
50.428          	1.37096687e-04	1.07887980e+00	-5.95728349e-01	-2.97727078e-01	-2.98001271e-01
50.43           	1.37782421e-04	1.07840130e+00	-5.95031990e-01	-2.97378212e-01	-2.97653777e-01
50.432          	1.38442154e-04	1.07801034e+00	-5.95320323e-01	-2.97521719e-01	-2.97798604e-01
50.434          	1.38710844e-04	1.07749966e+00	-5.95767745e-01	-2.97745161e-01	-2.98022583e-01
50.436          	1.38764652e-04	1.07760796e+00	-5.96102340e-01	-2.97912406e-01	-2.98189935e-01
50.438          	1.38524621e-04	1.07749991e+00	-5.96364237e-01	-2.98043594e-01	-2.98320643e-01
50.44           	1.37688601e-04	1.07812021e+00	-5.97051028e-01	-2.98387825e-01	-2.98663203e-01
50.442          	1.35945801e-04	1.07832292e+00	-5.97431676e-01	-2.98579892e-01	-2.98851784e-01
50.444          	1.34020593e-04	1.07785440e+00	-5.98036328e-01	-2.98884143e-01	-2.99152184e-01
50.446          	1.31994932e-04	1.07800537e+00	-5.98238447e-01	-2.98987229e-01	-2.99251218e-01
50.448          	1.30144492e-04	1.07780675e+00	-5.98999282e-01	-2.99369496e-01	-2.99629785e-01
50.45           	1.28633947e-04	1.07811721e+00	-5.99431678e-01	-2.99587205e-01	-2.99844473e-01
50.452          	1.27067757e-04	1.07826421e+00	-6.00127106e-01	-2.99936485e-01	-3.00190621e-01
50.454          	1.25969249e-04	1.07814341e+00	-6.00737734e-01	-3.00242898e-01	-3.00494836e-01
50.456          	1.25087892e-04	1.07848413e+00	-6.01258837e-01	-3.00504331e-01	-3.00754506e-01
50.458          	1.24330957e-04	1.07838739e+00	-6.01730015e-01	-3.00740676e-01	-3.00989338e-01
50.46           	1.23573224e-04	1.07842344e+00	-6.02599228e-01	-3.01176041e-01	-3.01423187e-01
50.462          	1.23211352e-04	1.07840661e+00	-6.02954635e-01	-3.01354106e-01	-3.01600529e-01
50.464          	1.22813250e-04	1.07802190e+00	-6.03421306e-01	-3.01587840e-01	-3.01833466e-01
50.466          	1.22486479e-04	1.07742200e+00	-6.03739665e-01	-3.01747346e-01	-3.01992319e-01
50.468          	1.21948694e-04	1.07708662e+00	-6.03991420e-01	-3.01873761e-01	-3.02117659e-01
50.47           	1.21350762e-04	1.07713399e+00	-6.04238773e-01	-3.01998036e-01	-3.02240737e-01
50.472          	1.20693962e-04	1.07678909e+00	-6.04657664e-01	-3.02208138e-01	-3.02449526e-01
50.474          	1.20000842e-04	1.07688708e+00	-6.04818638e-01	-3.02289318e-01	-3.02529320e-01
50.476          	1.19247793e-04	1.07732767e+00	-6.04629369e-01	-3.02195436e-01	-3.02433932e-01
50.478          	1.18519700e-04	1.07708786e+00	-6.04848967e-01	-3.02305964e-01	-3.02543003e-01
50.48           	1.18064957e-04	1.07721921e+00	-6.05171121e-01	-3.02467495e-01	-3.02703625e-01
50.482          	1.17628611e-04	1.07705441e+00	-6.05373881e-01	-3.02569312e-01	-3.02804569e-01
50.484          	1.17070626e-04	1.07715729e+00	-6.05289759e-01	-3.02527809e-01	-3.02761950e-01
50.486          	1.16629350e-04	1.07716341e+00	-6.05028584e-01	-3.02397663e-01	-3.02630921e-01
50.488          	1.15906899e-04	1.07717313e+00	-6.04665285e-01	-3.02216736e-01	-3.02448550e-01
50.49           	1.15035721e-04	1.07677426e+00	-6.04783141e-01	-3.02276535e-01	-3.02506606e-01
50.492          	1.14096198e-04	1.07666371e+00	-6.05042282e-01	-3.02407045e-01	-3.02635237e-01
50.494          	1.13062358e-04	1.07658570e+00	-6.05164956e-01	-3.02469416e-01	-3.02695540e-01
50.496          	1.11631951e-04	1.07661445e+00	-6.05395712e-01	-3.02586224e-01	-3.02809488e-01
50.498          	1.10514539e-04	1.07591908e+00	-6.05400283e-01	-3.02589627e-01	-3.02810656e-01
50.5            	1.09858984e-04	1.07584058e+00	-6.05530285e-01	-3.02655283e-01	-3.02875001e-01
50.502          	1.09348970e-04	1.07544677e+00	-6.05624685e-01	-3.02702993e-01	-3.02921691e-01
50.504          	1.08568783e-04	1.07576959e+00	-6.05556910e-01	-3.02669886e-01	-3.02887024e-01
50.506          	1.08112630e-04	1.07589100e+00	-6.05812278e-01	-3.02798026e-01	-3.03014252e-01
50.508          	1.08097217e-04	1.07565678e+00	-6.06084832e-01	-3.02934319e-01	-3.03150513e-01
50.51           	1.08480054e-04	1.07518771e+00	-6.06112214e-01	-3.02947627e-01	-3.03164587e-01
50.512          	1.08569578e-04	1.07499797e+00	-6.06338577e-01	-3.03060719e-01	-3.03277858e-01
50.514          	1.08214621e-04	1.07485056e+00	-6.06349118e-01	-3.03066345e-01	-3.03282774e-01
50.516          	1.07461560e-04	1.07480550e+00	-6.06346931e-01	-3.03066004e-01	-3.03280927e-01
50.518          	1.06281734e-04	1.07440970e+00	-6.06714035e-01	-3.03250736e-01	-3.03463299e-01
50.52           	1.05081188e-04	1.07394715e+00	-6.06708156e-01	-3.03248997e-01	-3.03459159e-01
50.522          	1.03905443e-04	1.07390802e+00	-6.06415081e-01	-3.03103635e-01	-3.03311446e-01
50.524          	1.02699745e-04	1.07384441e+00	-6.06625954e-01	-3.03210277e-01	-3.03415677e-01
50.526          	1.00770570e-04	1.07313599e+00	-6.06620192e-01	-3.03209326e-01	-3.03410867e-01
50.528          	9.92993946e-05	1.07280356e+00	-6.06896929e-01	-3.03349165e-01	-3.03547764e-01
50.53           	9.79150306e-05	1.07228495e+00	-6.07224780e-01	-3.03514475e-01	-3.03710305e-01
50.532          	9.63381168e-05	1.07202674e+00	-6.07247510e-01	-3.03527417e-01	-3.03720093e-01
50.534          	9.47583736e-05	1.07270797e+00	-6.07255097e-01	-3.03532790e-01	-3.03722307e-01
50.536          	9.32381515e-05	1.07301806e+00	-6.07293505e-01	-3.03553514e-01	-3.03739991e-01
50.538          	9.17821825e-05	1.07315090e+00	-6.07677483e-01	-3.03746959e-01	-3.03930524e-01
50.54           	9.06108210e-05	1.07328548e+00	-6.07762659e-01	-3.03790719e-01	-3.03971940e-01
50.542          	8.95347468e-05	1.07306132e+00	-6.07500969e-01	-3.03660950e-01	-3.03840019e-01
50.544          	8.88300446e-05	1.07249065e+00	-6.07291808e-01	-3.03557074e-01	-3.03734734e-01
50.546          	8.80721414e-05	1.07246617e+00	-6.07320114e-01	-3.03571985e-01	-3.03748129e-01
50.548          	8.74435392e-05	1.07225351e+00	-6.07217543e-01	-3.03521328e-01	-3.03696215e-01
50.55           	8.73040007e-05	1.07189187e+00	-6.07277107e-01	-3.03551250e-01	-3.03725858e-01
50.552          	8.77676097e-05	1.07218776e+00	-6.07181040e-01	-3.03502752e-01	-3.03678287e-01
50.554          	8.80620713e-05	1.07223637e+00	-6.07253801e-01	-3.03538838e-01	-3.03714962e-01
50.556          	8.81202156e-05	1.07245258e+00	-6.07075517e-01	-3.03449638e-01	-3.03625879e-01
50.558          	8.82532304e-05	1.07286955e+00	-6.07047060e-01	-3.03435277e-01	-3.03611783e-01
50.56           	8.84912013e-05	1.07293614e+00	-6.06696697e-01	-3.03259857e-01	-3.03436840e-01
50.562          	8.94203399e-05	1.07292299e+00	-6.06150418e-01	-3.02985789e-01	-3.03164630e-01
50.564          	9.04363721e-05	1.07315183e+00	-6.05942369e-01	-3.02880748e-01	-3.03061621e-01
50.566          	9.12797765e-05	1.07330071e+00	-6.05950312e-01	-3.02883876e-01	-3.03066436e-01
50.568          	9.14898648e-05	1.07347742e+00	-6.05979628e-01	-3.02898324e-01	-3.03081304e-01
50.57           	9.21517792e-05	1.07417979e+00	-6.05647304e-01	-3.02731500e-01	-3.02915804e-01
50.572          	9.25726768e-05	1.07427524e+00	-6.05108558e-01	-3.02461706e-01	-3.02646852e-01
50.574          	9.28831084e-05	1.07453848e+00	-6.05128408e-01	-3.02471321e-01	-3.02657087e-01
50.576          	9.31749306e-05	1.07480242e+00	-6.05203257e-01	-3.02508454e-01	-3.02694803e-01
50.578          	9.30567070e-05	1.07506005e+00	-6.05184892e-01	-3.02499389e-01	-3.02685503e-01
50.58           	9.32969664e-05	1.07556894e+00	-6.04883232e-01	-3.02348319e-01	-3.02534913e-01
50.582          	9.36359691e-05	1.07624662e+00	-6.04808294e-01	-3.02310511e-01	-3.02497783e-01
50.584          	9.39317107e-05	1.07620710e+00	-6.04466456e-01	-3.02139296e-01	-3.02327160e-01
50.586          	9.43834291e-05	1.07656914e+00	-6.04664665e-01	-3.02237949e-01	-3.02426716e-01
50.588          	9.51268518e-05	1.07676960e+00	-6.04346349e-01	-3.02078047e-01	-3.02268301e-01
50.59           	9.59488373e-05	1.07718712e+00	-6.04431185e-01	-3.02119644e-01	-3.02311542e-01
50.592          	9.68804586e-05	1.07744670e+00	-6.04423670e-01	-3.02114955e-01	-3.02308716e-01
50.594          	9.75899892e-05	1.07792451e+00	-6.04296755e-01	-3.02050787e-01	-3.02245967e-01
50.596          	9.78550137e-05	1.07811382e+00	-6.04177965e-01	-3.01991127e-01	-3.02186837e-01
50.598          	9.75310941e-05	1.07780485e+00	-6.03979196e-01	-3.01892067e-01	-3.02087129e-01
50.6            	9.73663391e-05	1.07796256e+00	-6.04129744e-01	-3.01967505e-01	-3.02162238e-01
50.602          	9.73405075e-05	1.07828717e+00	-6.04272072e-01	-3.02038696e-01	-3.02233377e-01
50.604          	9.67489947e-05	1.07833383e+00	-6.03854588e-01	-3.01830545e-01	-3.02024043e-01
50.606          	9.54655754e-05	1.07850392e+00	-6.03519875e-01	-3.01664472e-01	-3.01855403e-01
50.608          	9.40347670e-05	1.07820160e+00	-6.03241415e-01	-3.01526673e-01	-3.01714742e-01
50.61           	9.25526384e-05	1.07815451e+00	-6.03221237e-01	-3.01518066e-01	-3.01703171e-01
50.612          	9.09083649e-05	1.07832593e+00	-6.03087335e-01	-3.01452759e-01	-3.01634576e-01
50.614          	8.95301312e-05	1.07865323e+00	-6.02813638e-01	-3.01317289e-01	-3.01496349e-01
50.616          	8.80918272e-05	1.07855628e+00	-6.02359173e-01	-3.01091494e-01	-3.01267678e-01
50.618          	8.71146577e-05	1.07833973e+00	-6.02000888e-01	-3.00913329e-01	-3.01087559e-01