# Region type : faceZone InSurface
# Faces  :    590
# Area   :    6.238624e+01
# Time        	areaAverage(surfaceInterpolate(p))
485           	3.694476e-01
485.2         	3.694476e-01
