# Region type : faceZone OutSurface
# Faces  :    339
# Area   :    3.219671e+01
# Time        	areaAverage(surfaceInterpolate(p))
200           	-1.620285e-01
200.2         	-1.620285e-01
200.4         	-1.620285e-01
200.6         	-1.620285e-01
200.8         	-1.620285e-01
201           	-1.617418e-01
201.2         	-1.617418e-01
201.4         	-1.617418e-01
201.6         	-1.617418e-01
201.8         	-1.617418e-01
202           	-1.614702e-01
202.2         	-1.614702e-01
202.4         	-1.614702e-01
202.6         	-1.614702e-01
202.8         	-1.614702e-01
203           	-1.612055e-01
203.2         	-1.612055e-01
203.4         	-1.612055e-01
203.6         	-1.612055e-01
203.8         	-1.612055e-01
204           	-1.609246e-01
204.2         	-1.609246e-01
204.4         	-1.609246e-01
204.6         	-1.609246e-01
204.8         	-1.609246e-01
205           	-1.606137e-01
205.2         	-1.606137e-01
205.4         	-1.606137e-01
205.6         	-1.606137e-01
205.8         	-1.606137e-01
206           	-1.603100e-01
206.2         	-1.603100e-01
206.4         	-1.603100e-01
206.6         	-1.603100e-01
206.8         	-1.603100e-01
207           	-1.599941e-01
207.2         	-1.599941e-01
207.4         	-1.599941e-01
207.6         	-1.599941e-01
207.8         	-1.599941e-01
208           	-1.596643e-01
208.2         	-1.596643e-01
208.4         	-1.596643e-01
208.6         	-1.596643e-01
208.8         	-1.596643e-01
209           	-1.593049e-01
209.2         	-1.593049e-01
209.4         	-1.593049e-01
209.6         	-1.593049e-01
209.8         	-1.593049e-01
210           	-1.589558e-01
210.2         	-1.589558e-01
210.4         	-1.589558e-01
210.6         	-1.589558e-01
210.8         	-1.589558e-01
211           	-1.584048e-01
211.2         	-1.584048e-01
211.4         	-1.584048e-01
211.6         	-1.584048e-01
211.8         	-1.584048e-01
212           	-1.581330e-01
212.2         	-1.581330e-01
212.4         	-1.581330e-01
212.6         	-1.581330e-01
212.8         	-1.581330e-01
213           	-1.577182e-01
213.2         	-1.577182e-01
213.4         	-1.577182e-01
213.6         	-1.577182e-01
213.8         	-1.577182e-01
214           	-1.572860e-01
214.2         	-1.572860e-01
214.4         	-1.572860e-01
214.6         	-1.572860e-01
214.8         	-1.572860e-01
215           	-1.568532e-01
215.2         	-1.568532e-01
215.4         	-1.568532e-01
215.6         	-1.568532e-01
215.8         	-1.568532e-01
216           	-1.564056e-01
216.2         	-1.564056e-01
216.4         	-1.564056e-01
216.6         	-1.564056e-01
216.8         	-1.564056e-01
217           	-1.559962e-01
217.2         	-1.559962e-01
217.4         	-1.559962e-01
217.6         	-1.559962e-01
217.8         	-1.559962e-01
218           	-1.555893e-01
218.2         	-1.555893e-01
218.4         	-1.555893e-01
218.6         	-1.555893e-01
218.8         	-1.555893e-01
219           	-1.552012e-01
219.2         	-1.552012e-01
219.4         	-1.552012e-01
219.6         	-1.552012e-01
219.8         	-1.552012e-01
220           	-1.548304e-01
220.2         	-1.548304e-01
220.4         	-1.548304e-01
220.6         	-1.548304e-01
220.8         	-1.548304e-01
221           	-1.545116e-01
221.2         	-1.545116e-01
221.4         	-1.545116e-01
221.6         	-1.545116e-01
221.8         	-1.545116e-01
222           	-1.542059e-01
222.2         	-1.542059e-01
222.4         	-1.542059e-01
222.6         	-1.542059e-01
222.8         	-1.542059e-01
223           	-1.539216e-01
223.2         	-1.539216e-01
223.4         	-1.539216e-01
223.6         	-1.539216e-01
223.8         	-1.539216e-01
224           	-1.536929e-01
224.2         	-1.536929e-01
224.4         	-1.536929e-01
224.6         	-1.536929e-01
224.8         	-1.536929e-01
225           	-1.534793e-01
225.2         	-1.534793e-01
225.4         	-1.534793e-01
225.6         	-1.534793e-01
225.8         	-1.534793e-01
226           	-1.532771e-01
226.2         	-1.532771e-01
226.4         	-1.532771e-01
226.6         	-1.532771e-01
226.8         	-1.532771e-01
227           	-1.530667e-01
227.2         	-1.530667e-01
227.4         	-1.530667e-01
227.6         	-1.530667e-01
227.8         	-1.530667e-01
228           	-1.528812e-01
228.2         	-1.528812e-01
228.4         	-1.528812e-01
228.6         	-1.528812e-01
228.8         	-1.528812e-01
229           	-1.526816e-01
229.2         	-1.526816e-01
229.4         	-1.526816e-01
229.6         	-1.526816e-01
229.8         	-1.526816e-01
230           	-1.524711e-01
230.2         	-1.524711e-01
230.4         	-1.524711e-01
230.6         	-1.524711e-01
230.8         	-1.524711e-01
231           	-1.522400e-01
231.2         	-1.522400e-01
231.4         	-1.522400e-01
231.6         	-1.522400e-01
231.8         	-1.522400e-01
232           	-1.519980e-01
232.2         	-1.519980e-01
232.4         	-1.519980e-01
232.6         	-1.519980e-01
232.8         	-1.519980e-01
233           	-1.517258e-01
233.2         	-1.517258e-01
233.4         	-1.517258e-01
233.6         	-1.517258e-01
233.8         	-1.517258e-01
234           	-1.514177e-01
234.2         	-1.514177e-01
234.4         	-1.514177e-01
234.6         	-1.514177e-01
234.8         	-1.514177e-01
235           	-1.510775e-01
235.2         	-1.510775e-01
235.4         	-1.510775e-01
235.6         	-1.510775e-01
235.8         	-1.510775e-01
236           	-1.507135e-01
236.2         	-1.507135e-01
236.4         	-1.507135e-01
236.6         	-1.507135e-01
236.8         	-1.507135e-01
237           	-1.503093e-01
237.2         	-1.503093e-01
237.4         	-1.503093e-01
237.6         	-1.503093e-01
237.8         	-1.503093e-01
238           	-1.498646e-01
238.2         	-1.498646e-01
238.4         	-1.498646e-01
238.6         	-1.498646e-01
238.8         	-1.498646e-01
239           	-1.493877e-01
239.2         	-1.493877e-01
239.4         	-1.493877e-01
239.6         	-1.493877e-01
239.8         	-1.493877e-01
240           	-1.488802e-01
240.2         	-1.488802e-01
240.4         	-1.488802e-01
240.6         	-1.488802e-01
240.8         	-1.488802e-01
241           	-1.483394e-01
241.2         	-1.483394e-01
241.4         	-1.483394e-01
241.6         	-1.483394e-01
241.8         	-1.483394e-01
242           	-1.477570e-01
242.2         	-1.477570e-01
242.4         	-1.477570e-01
242.6         	-1.477570e-01
242.8         	-1.477570e-01
243           	-1.472103e-01
243.2         	-1.472103e-01
243.4         	-1.472103e-01
243.6         	-1.472103e-01
243.8         	-1.472103e-01
244           	-1.466454e-01
244.2         	-1.466454e-01
244.4         	-1.466454e-01
244.6         	-1.466454e-01
244.8         	-1.466454e-01
245           	-1.460899e-01
245.2         	-1.460899e-01
245.4         	-1.460899e-01
245.6         	-1.460899e-01
245.8         	-1.460899e-01
246           	-1.455734e-01
246.2         	-1.455734e-01
246.4         	-1.455734e-01
246.6         	-1.455734e-01
246.8         	-1.455734e-01
247           	-1.450947e-01
247.2         	-1.450947e-01
247.4         	-1.450947e-01
247.6         	-1.450947e-01
247.8         	-1.450947e-01
248           	-1.446751e-01
248.2         	-1.446751e-01
248.4         	-1.446751e-01
248.6         	-1.446751e-01
248.8         	-1.446751e-01
249           	-1.443161e-01
249.2         	-1.443161e-01
249.4         	-1.443161e-01
249.6         	-1.443161e-01
249.8         	-1.443161e-01
250           	-1.439938e-01
250.2         	-1.439938e-01
250.4         	-1.439938e-01
250.6         	-1.439938e-01
250.8         	-1.439938e-01
251           	-1.437304e-01
251.2         	-1.437304e-01
251.4         	-1.437304e-01
251.6         	-1.437304e-01
251.8         	-1.437304e-01
252           	-1.435250e-01
252.2         	-1.435250e-01
252.4         	-1.435250e-01
252.6         	-1.435250e-01
252.8         	-1.435250e-01
253           	-1.433388e-01
253.2         	-1.433388e-01
253.4         	-1.433388e-01
253.6         	-1.433388e-01
253.8         	-1.433388e-01
254           	-1.432041e-01
254.2         	-1.432041e-01
254.4         	-1.432041e-01
254.6         	-1.432041e-01
254.8         	-1.432041e-01
255           	-1.430676e-01
255.2         	-1.430676e-01
255.4         	-1.430676e-01
255.6         	-1.430676e-01
255.8         	-1.430676e-01
256           	-1.429221e-01
256.2         	-1.429221e-01
256.4         	-1.429221e-01
256.6         	-1.429221e-01
256.8         	-1.429221e-01
257           	-1.428550e-01
257.2         	-1.428550e-01
257.4         	-1.428550e-01
257.6         	-1.428550e-01
257.8         	-1.428550e-01
258           	-1.427467e-01
258.2         	-1.427467e-01
258.4         	-1.427467e-01
258.6         	-1.427467e-01
258.8         	-1.427467e-01
259           	-1.426296e-01
259.2         	-1.426296e-01
259.4         	-1.426296e-01
259.6         	-1.426296e-01
259.8         	-1.426296e-01
260           	-1.425038e-01
260.2         	-1.425038e-01
260.4         	-1.425038e-01
260.6         	-1.425038e-01
260.8         	-1.425038e-01
261           	-1.423595e-01
261.2         	-1.423595e-01
261.4         	-1.423595e-01
261.6         	-1.423595e-01
261.8         	-1.423595e-01
262           	-1.421889e-01
262.2         	-1.421889e-01
262.4         	-1.421889e-01
262.6         	-1.421889e-01
262.8         	-1.421889e-01
263           	-1.419866e-01
263.2         	-1.419866e-01
263.4         	-1.419866e-01
263.6         	-1.419866e-01
263.8         	-1.419866e-01
264           	-1.417508e-01
264.2         	-1.417508e-01
264.4         	-1.417508e-01
264.6         	-1.417508e-01
264.8         	-1.417508e-01
265           	-1.414842e-01
265.2         	-1.414842e-01
265.4         	-1.414842e-01
265.6         	-1.414842e-01
265.8         	-1.414842e-01
266           	-1.411801e-01
266.2         	-1.411801e-01
266.4         	-1.411801e-01
266.6         	-1.411801e-01
266.8         	-1.411801e-01
267           	-1.408375e-01
267.2         	-1.408375e-01
267.4         	-1.408375e-01
267.6         	-1.408375e-01
267.8         	-1.408375e-01
268           	-1.404477e-01
268.2         	-1.404477e-01
268.4         	-1.404477e-01
268.6         	-1.404477e-01
268.8         	-1.404477e-01
269           	-1.400283e-01
269.2         	-1.400283e-01
269.4         	-1.400283e-01
269.6         	-1.400283e-01
269.8         	-1.400283e-01
270           	-1.395629e-01
270.2         	-1.395629e-01
270.4         	-1.395629e-01
270.6         	-1.395629e-01
270.8         	-1.395629e-01
271           	-1.390575e-01
271.2         	-1.390575e-01
271.4         	-1.390575e-01
271.6         	-1.390575e-01
271.8         	-1.390575e-01
272           	-1.385033e-01
272.2         	-1.385033e-01
272.4         	-1.385033e-01
272.6         	-1.385033e-01
272.8         	-1.385033e-01
273           	-1.379010e-01
273.2         	-1.379010e-01
273.4         	-1.379010e-01
273.6         	-1.379010e-01
273.8         	-1.379010e-01
274           	-1.372827e-01
274.2         	-1.372827e-01
274.4         	-1.372827e-01
274.6         	-1.372827e-01
274.8         	-1.372827e-01
275           	-1.366280e-01
275.2         	-1.366280e-01
275.4         	-1.366280e-01
275.6         	-1.366280e-01
275.8         	-1.366280e-01
276           	-1.359576e-01
276.2         	-1.359576e-01
276.4         	-1.359576e-01
276.6         	-1.359576e-01
276.8         	-1.359576e-01
277           	-1.352883e-01
277.2         	-1.352883e-01
277.4         	-1.352883e-01
277.6         	-1.352883e-01
277.8         	-1.352883e-01
278           	-1.346455e-01
278.2         	-1.346455e-01
278.4         	-1.346455e-01
278.6         	-1.346455e-01
278.8         	-1.346455e-01
279           	-1.340316e-01
279.2         	-1.340316e-01
279.4         	-1.340316e-01
279.6         	-1.340316e-01
279.8         	-1.340316e-01
280           	-1.334596e-01
280.2         	-1.334596e-01
280.4         	-1.334596e-01
280.6         	-1.334596e-01
280.8         	-1.334596e-01
281           	-1.329581e-01
281.2         	-1.329581e-01
281.4         	-1.329581e-01
281.6         	-1.329581e-01
281.8         	-1.329581e-01
282           	-1.325303e-01
282.2         	-1.325303e-01
282.4         	-1.325303e-01
282.6         	-1.325303e-01
282.8         	-1.325303e-01
283           	-1.321701e-01
283.2         	-1.321701e-01
283.4         	-1.321701e-01
283.6         	-1.321701e-01
283.8         	-1.321701e-01
284           	-1.318937e-01
284.2         	-1.318937e-01
284.4         	-1.318937e-01
284.6         	-1.318937e-01
284.8         	-1.318937e-01
285           	-1.316908e-01
285.2         	-1.316908e-01
285.4         	-1.316908e-01
285.6         	-1.316908e-01
285.8         	-1.316908e-01
286           	-1.315219e-01
286.2         	-1.315219e-01
286.4         	-1.315219e-01
286.6         	-1.315219e-01
286.8         	-1.315219e-01
287           	-1.314084e-01
287.2         	-1.314084e-01
287.4         	-1.314084e-01
287.6         	-1.314084e-01
287.8         	-1.314084e-01
288           	-1.313322e-01
288.2         	-1.313322e-01
288.4         	-1.313322e-01
288.6         	-1.313322e-01
288.8         	-1.313322e-01
289           	-1.312843e-01
289.2         	-1.312843e-01
289.4         	-1.312843e-01
289.6         	-1.312843e-01
289.8         	-1.312843e-01
290           	-1.312474e-01
290.2         	-1.312474e-01
290.4         	-1.312474e-01
290.6         	-1.312474e-01
290.8         	-1.312474e-01
291           	-1.312024e-01
291.2         	-1.312024e-01
291.4         	-1.312024e-01
291.6         	-1.312024e-01
291.8         	-1.312024e-01
