# Region type : faceZone OutSurface
# Faces  :    339
# Area   :    3.219671e+01
# Time        	areaAverage(surfaceInterpolate(p))
485           	3.896208e-02
485.2         	3.896208e-02
