# Region type : faceZone OutSurface
# Faces  :    339
# Area   :    3.219671e+01
# Time        	areaAverage(surfaceInterpolate(p))
300           	-1.131416e-01
300.2         	-1.131416e-01
300.4         	-1.131416e-01
300.6         	-1.131416e-01
300.8         	-1.131416e-01
301           	-1.127517e-01
301.2         	-1.127517e-01
301.4         	-1.127517e-01
301.6         	-1.127517e-01
301.8         	-1.127517e-01
302           	-1.123823e-01
302.2         	-1.123823e-01
302.4         	-1.123823e-01
302.6         	-1.123823e-01
302.8         	-1.123823e-01
303           	-1.120256e-01
303.2         	-1.120256e-01
303.4         	-1.120256e-01
303.6         	-1.120256e-01
303.8         	-1.120256e-01
304           	-1.116810e-01
304.2         	-1.116810e-01
304.4         	-1.116810e-01
304.6         	-1.116810e-01
304.8         	-1.116810e-01
305           	-1.113463e-01
305.2         	-1.113463e-01
305.4         	-1.113463e-01
305.6         	-1.113463e-01
305.8         	-1.113463e-01
306           	-1.110224e-01
306.2         	-1.110224e-01
306.4         	-1.110224e-01
306.6         	-1.110224e-01
306.8         	-1.110224e-01
307           	-1.106999e-01
307.2         	-1.106999e-01
307.4         	-1.106999e-01
307.6         	-1.106999e-01
307.8         	-1.106999e-01
308           	-1.103759e-01
308.2         	-1.103759e-01
308.4         	-1.103759e-01
308.6         	-1.103759e-01
308.8         	-1.103759e-01
309           	-1.100486e-01
309.2         	-1.100486e-01
309.4         	-1.100486e-01
309.6         	-1.100486e-01
309.8         	-1.100486e-01
310           	-1.097114e-01
310.2         	-1.097114e-01
310.4         	-1.097114e-01
310.6         	-1.097114e-01
310.8         	-1.097114e-01
311           	-1.093670e-01
311.2         	-1.093670e-01
311.4         	-1.093670e-01
311.6         	-1.093670e-01
311.8         	-1.093670e-01
312           	-1.090072e-01
312.2         	-1.090072e-01
312.4         	-1.090072e-01
312.6         	-1.090072e-01
312.8         	-1.090072e-01
313           	-1.086317e-01
313.2         	-1.086317e-01
313.4         	-1.086317e-01
313.6         	-1.086317e-01
313.8         	-1.086317e-01
314           	-1.082379e-01
314.2         	-1.082379e-01
314.4         	-1.082379e-01
314.6         	-1.082379e-01
314.8         	-1.082379e-01
315           	-1.078246e-01
315.2         	-1.078246e-01
315.4         	-1.078246e-01
315.6         	-1.078246e-01
315.8         	-1.078246e-01
316           	-1.073885e-01
316.2         	-1.073885e-01
316.4         	-1.073885e-01
316.6         	-1.073885e-01
316.8         	-1.073885e-01
317           	-1.069296e-01
317.2         	-1.069296e-01
317.4         	-1.069296e-01
317.6         	-1.069296e-01
317.8         	-1.069296e-01
318           	-1.064482e-01
318.2         	-1.064482e-01
318.4         	-1.064482e-01
318.6         	-1.064482e-01
318.8         	-1.064482e-01
319           	-1.059452e-01
319.2         	-1.059452e-01
319.4         	-1.059452e-01
319.6         	-1.059452e-01
319.8         	-1.059452e-01
320           	-1.054197e-01
320.2         	-1.054197e-01
320.4         	-1.054197e-01
320.6         	-1.054197e-01
320.8         	-1.054197e-01
321           	-1.048729e-01
321.2         	-1.048729e-01
321.4         	-1.048729e-01
321.6         	-1.048729e-01
321.8         	-1.048729e-01
322           	-1.043083e-01
322.2         	-1.043083e-01
322.4         	-1.043083e-01
322.6         	-1.043083e-01
322.8         	-1.043083e-01
323           	-1.037247e-01
323.2         	-1.037247e-01
323.4         	-1.037247e-01
323.6         	-1.037247e-01
323.8         	-1.037247e-01
324           	-1.031262e-01
324.2         	-1.031262e-01
324.4         	-1.031262e-01
324.6         	-1.031262e-01
324.8         	-1.031262e-01
325           	-1.025165e-01
325.2         	-1.025165e-01
325.4         	-1.025165e-01
325.6         	-1.025165e-01
325.8         	-1.025165e-01
326           	-1.018984e-01
326.2         	-1.018984e-01
326.4         	-1.018984e-01
326.6         	-1.018984e-01
326.8         	-1.018984e-01
327           	-1.012747e-01
327.2         	-1.012747e-01
327.4         	-1.012747e-01
327.6         	-1.012747e-01
327.8         	-1.012747e-01
328           	-1.006506e-01
328.2         	-1.006506e-01
328.4         	-1.006506e-01
328.6         	-1.006506e-01
328.8         	-1.006506e-01
329           	-1.000261e-01
329.2         	-1.000261e-01
329.4         	-1.000261e-01
329.6         	-1.000261e-01
329.8         	-1.000261e-01
330           	-9.941050e-02
330.2         	-9.941050e-02
330.4         	-9.941050e-02
330.6         	-9.941050e-02
330.8         	-9.941050e-02
331           	-9.880403e-02
331.2         	-9.880403e-02
331.4         	-9.880403e-02
331.6         	-9.880403e-02
331.8         	-9.880403e-02
332           	-9.821059e-02
332.2         	-9.821059e-02
332.4         	-9.821059e-02
332.6         	-9.821059e-02
332.8         	-9.821059e-02
333           	-9.763313e-02
333.2         	-9.763313e-02
333.4         	-9.763313e-02
333.6         	-9.763313e-02
333.8         	-9.763313e-02
334           	-9.707039e-02
334.2         	-9.707039e-02
334.4         	-9.707039e-02
334.6         	-9.707039e-02
334.8         	-9.707039e-02
335           	-9.652118e-02
335.2         	-9.652118e-02
335.4         	-9.652118e-02
335.6         	-9.652118e-02
335.8         	-9.652118e-02
336           	-9.599568e-02
336.2         	-9.599568e-02
336.4         	-9.599568e-02
336.6         	-9.599568e-02
336.8         	-9.599568e-02
337           	-9.548758e-02
337.2         	-9.548758e-02
337.4         	-9.548758e-02
337.6         	-9.548758e-02
337.8         	-9.548758e-02
338           	-9.499688e-02
338.2         	-9.499688e-02
338.4         	-9.499688e-02
338.6         	-9.499688e-02
338.8         	-9.499688e-02
339           	-9.452560e-02
339.2         	-9.452560e-02
339.4         	-9.452560e-02
339.6         	-9.452560e-02
339.8         	-9.452560e-02
340           	-9.407088e-02
340.2         	-9.407088e-02
340.4         	-9.407088e-02
340.6         	-9.407088e-02
340.8         	-9.407088e-02
341           	-9.363156e-02
341.2         	-9.363156e-02
341.4         	-9.363156e-02
341.6         	-9.363156e-02
341.8         	-9.363156e-02
342           	-9.320570e-02
342.2         	-9.320570e-02
342.4         	-9.320570e-02
342.6         	-9.320570e-02
342.8         	-9.320570e-02
343           	-9.279054e-02
343.2         	-9.279054e-02
343.4         	-9.279054e-02
343.6         	-9.279054e-02
343.8         	-9.279054e-02
344           	-9.238278e-02
344.2         	-9.238278e-02
344.4         	-9.238278e-02
344.6         	-9.238278e-02
344.8         	-9.238278e-02
345           	-9.198060e-02
345.2         	-9.198060e-02
345.4         	-9.198060e-02
345.6         	-9.198060e-02
345.8         	-9.198060e-02
346           	-9.158120e-02
346.2         	-9.158120e-02
346.4         	-9.158120e-02
346.6         	-9.158120e-02
346.8         	-9.158120e-02
347           	-9.118197e-02
347.2         	-9.118197e-02
347.4         	-9.118197e-02
347.6         	-9.118197e-02
347.8         	-9.118197e-02
348           	-9.074211e-02
348.2         	-9.074211e-02
348.4         	-9.074211e-02
348.6         	-9.074211e-02
348.8         	-9.074211e-02
349           	-9.033366e-02
349.2         	-9.033366e-02
349.4         	-9.033366e-02
349.6         	-9.033366e-02
349.8         	-9.033366e-02
350           	-8.991706e-02
350.2         	-8.991706e-02
350.4         	-8.991706e-02
350.6         	-8.991706e-02
350.8         	-8.991706e-02
351           	-8.948961e-02
351.2         	-8.948961e-02
351.4         	-8.948961e-02
351.6         	-8.948961e-02
351.8         	-8.948961e-02
352           	-8.904761e-02
352.2         	-8.904761e-02
352.4         	-8.904761e-02
352.6         	-8.904761e-02
352.8         	-8.904761e-02
353           	-8.859215e-02
353.2         	-8.859215e-02
353.4         	-8.859215e-02
353.6         	-8.859215e-02
353.8         	-8.859215e-02
354           	-8.811900e-02
354.2         	-8.811900e-02
354.4         	-8.811900e-02
354.6         	-8.811900e-02
354.8         	-8.811900e-02
355           	-8.762747e-02
355.2         	-8.762747e-02
355.4         	-8.762747e-02
355.6         	-8.762747e-02
355.8         	-8.762747e-02
356           	-8.711568e-02
356.2         	-8.711568e-02
356.4         	-8.711568e-02
356.6         	-8.711568e-02
356.8         	-8.711568e-02
357           	-8.658404e-02
357.2         	-8.658404e-02
357.4         	-8.658404e-02
357.6         	-8.658404e-02
357.8         	-8.658404e-02
358           	-8.603076e-02
358.2         	-8.603076e-02
358.4         	-8.603076e-02
358.6         	-8.603076e-02
358.8         	-8.603076e-02
359           	-8.545638e-02
359.2         	-8.545638e-02
359.4         	-8.545638e-02
359.6         	-8.545638e-02
359.8         	-8.545638e-02
360           	-8.486056e-02
360.2         	-8.486056e-02
360.4         	-8.486056e-02
360.6         	-8.486056e-02
360.8         	-8.486056e-02
361           	-8.424538e-02
361.2         	-8.424538e-02
361.4         	-8.424538e-02
361.6         	-8.424538e-02
361.8         	-8.424538e-02
362           	-8.360820e-02
362.2         	-8.360820e-02
362.4         	-8.360820e-02
362.6         	-8.360820e-02
362.8         	-8.360820e-02
363           	-8.295481e-02
363.2         	-8.295481e-02
363.4         	-8.295481e-02
363.6         	-8.295481e-02
363.8         	-8.295481e-02
364           	-8.228328e-02
364.2         	-8.228328e-02
364.4         	-8.228328e-02
364.6         	-8.228328e-02
364.8         	-8.228328e-02
365           	-8.159816e-02
365.2         	-8.159816e-02
365.4         	-8.159816e-02
365.6         	-8.159816e-02
365.8         	-8.159816e-02
366           	-8.089966e-02
366.2         	-8.089966e-02
366.4         	-8.089966e-02
366.6         	-8.089966e-02
366.8         	-8.089966e-02
367           	-8.019198e-02
367.2         	-8.019198e-02
367.4         	-8.019198e-02
367.6         	-8.019198e-02
367.8         	-8.019198e-02
368           	-7.947621e-02
368.2         	-7.947621e-02
368.4         	-7.947621e-02
368.6         	-7.947621e-02
368.8         	-7.947621e-02
369           	-7.875543e-02
369.2         	-7.875543e-02
369.4         	-7.875543e-02
369.6         	-7.875543e-02
369.8         	-7.875543e-02
370           	-7.803039e-02
370.2         	-7.803039e-02
370.4         	-7.803039e-02
370.6         	-7.803039e-02
370.8         	-7.803039e-02
371           	-7.730489e-02
371.2         	-7.730489e-02
371.4         	-7.730489e-02
371.6         	-7.730489e-02
371.8         	-7.730489e-02
372           	-7.658314e-02
372.2         	-7.658314e-02
372.4         	-7.658314e-02
372.6         	-7.658314e-02
372.8         	-7.658314e-02
373           	-7.586275e-02
373.2         	-7.586275e-02
373.4         	-7.586275e-02
373.6         	-7.586275e-02
373.8         	-7.586275e-02
374           	-7.515010e-02
374.2         	-7.515010e-02
374.4         	-7.515010e-02
374.6         	-7.515010e-02
374.8         	-7.515010e-02
375           	-7.444511e-02
375.2         	-7.444511e-02
375.4         	-7.444511e-02
375.6         	-7.444511e-02
375.8         	-7.444511e-02
376           	-7.374660e-02
376.2         	-7.374660e-02
376.4         	-7.374660e-02
376.6         	-7.374660e-02
376.8         	-7.374660e-02
377           	-7.305694e-02
377.2         	-7.305694e-02
377.4         	-7.305694e-02
377.6         	-7.305694e-02
377.8         	-7.305694e-02
378           	-7.237549e-02
378.2         	-7.237549e-02
378.4         	-7.237549e-02
378.6         	-7.237549e-02
378.8         	-7.237549e-02
379           	-7.170161e-02
379.2         	-7.170161e-02
379.4         	-7.170161e-02
379.6         	-7.170161e-02
379.8         	-7.170161e-02
380           	-7.103607e-02
380.2         	-7.103607e-02
380.4         	-7.103607e-02
380.6         	-7.103607e-02
380.8         	-7.103607e-02
381           	-7.037735e-02
381.2         	-7.037735e-02
381.4         	-7.037735e-02
381.6         	-7.037735e-02
381.8         	-7.037735e-02
382           	-6.972408e-02
382.2         	-6.972408e-02
382.4         	-6.972408e-02
382.6         	-6.972408e-02
382.8         	-6.972408e-02
383           	-6.907549e-02
383.2         	-6.907549e-02
383.4         	-6.907549e-02
383.6         	-6.907549e-02
383.8         	-6.907549e-02
384           	-6.843069e-02
384.2         	-6.843069e-02
384.4         	-6.843069e-02
384.6         	-6.843069e-02
384.8         	-6.843069e-02
385           	-6.778753e-02
385.2         	-6.778753e-02
385.4         	-6.778753e-02
385.6         	-6.778753e-02
385.8         	-6.778753e-02
386           	-6.714613e-02
386.2         	-6.714613e-02
386.4         	-6.714613e-02
386.6         	-6.714613e-02
386.8         	-6.714613e-02
387           	-6.650468e-02
387.2         	-6.650468e-02
387.4         	-6.650468e-02
387.6         	-6.650468e-02
387.8         	-6.650468e-02
388           	-6.586191e-02
388.2         	-6.586191e-02
388.4         	-6.586191e-02
388.6         	-6.586191e-02
388.8         	-6.586191e-02
389           	-6.521518e-02
389.2         	-6.521518e-02
389.4         	-6.521518e-02
389.6         	-6.521518e-02
389.8         	-6.521518e-02
390           	-6.456454e-02
390.2         	-6.456454e-02
390.4         	-6.456454e-02
390.6         	-6.456454e-02
390.8         	-6.456454e-02
391           	-6.390816e-02
391.2         	-6.390816e-02
391.4         	-6.390816e-02
391.6         	-6.390816e-02
391.8         	-6.390816e-02
392           	-6.324614e-02
392.2         	-6.324614e-02
392.4         	-6.324614e-02
392.6         	-6.324614e-02
392.8         	-6.324614e-02
393           	-6.257740e-02
393.2         	-6.257740e-02
393.4         	-6.257740e-02
393.6         	-6.257740e-02
393.8         	-6.257740e-02
394           	-6.189985e-02
394.2         	-6.189985e-02
394.4         	-6.189985e-02
394.6         	-6.189985e-02
394.8         	-6.189985e-02
395           	-6.121452e-02
395.2         	-6.121452e-02
395.4         	-6.121452e-02
395.6         	-6.121452e-02
395.8         	-6.121452e-02
396           	-6.051924e-02
396.2         	-6.051924e-02
396.4         	-6.051924e-02
396.6         	-6.051924e-02
396.8         	-6.051924e-02
397           	-5.981558e-02
397.2         	-5.981558e-02
397.4         	-5.981558e-02
397.6         	-5.981558e-02
397.8         	-5.981558e-02
398           	-5.910157e-02
398.2         	-5.910157e-02
398.4         	-5.910157e-02
398.6         	-5.910157e-02
398.8         	-5.910157e-02
399           	-5.837946e-02
399.2         	-5.837946e-02
399.4         	-5.837946e-02
399.6         	-5.837946e-02
399.8         	-5.837946e-02
400           	-5.764786e-02
400.2         	-5.764786e-02
400.4         	-5.764786e-02
400.6         	-5.764786e-02
400.8         	-5.764786e-02
401           	-5.690824e-02
401.2         	-5.690824e-02
401.4         	-5.690824e-02
401.6         	-5.690824e-02
401.8         	-5.690824e-02
402           	-5.616229e-02
402.2         	-5.616229e-02
402.4         	-5.616229e-02
402.6         	-5.616229e-02
402.8         	-5.616229e-02
403           	-5.540344e-02
403.2         	-5.540344e-02
403.4         	-5.540344e-02
403.6         	-5.540344e-02
403.8         	-5.540344e-02
404           	-5.464964e-02
404.2         	-5.464964e-02
404.4         	-5.464964e-02
404.6         	-5.464964e-02
404.8         	-5.464964e-02
405           	-5.388680e-02
405.2         	-5.388680e-02
405.4         	-5.388680e-02
405.6         	-5.388680e-02
405.8         	-5.388680e-02
406           	-5.311646e-02
406.2         	-5.311646e-02
406.4         	-5.311646e-02
406.6         	-5.311646e-02
406.8         	-5.311646e-02
407           	-5.234268e-02
407.2         	-5.234268e-02
407.4         	-5.234268e-02
407.6         	-5.234268e-02
407.8         	-5.234268e-02
408           	-5.156473e-02
408.2         	-5.156473e-02
408.4         	-5.156473e-02
408.6         	-5.156473e-02
408.8         	-5.156473e-02
409           	-5.076899e-02
409.2         	-5.076899e-02
409.4         	-5.076899e-02
409.6         	-5.076899e-02
409.8         	-5.076899e-02
410           	-4.997660e-02
410.2         	-4.997660e-02
410.4         	-4.997660e-02
410.6         	-4.997660e-02
410.8         	-4.997660e-02
411           	-4.919324e-02
411.2         	-4.919324e-02
411.4         	-4.919324e-02
411.6         	-4.919324e-02
411.8         	-4.919324e-02
412           	-4.840895e-02
412.2         	-4.840895e-02
412.4         	-4.840895e-02
412.6         	-4.840895e-02
412.8         	-4.840895e-02
413           	-4.762729e-02
413.2         	-4.762729e-02
413.4         	-4.762729e-02
413.6         	-4.762729e-02
413.8         	-4.762729e-02
414           	-4.684461e-02
414.2         	-4.684461e-02
414.4         	-4.684461e-02
414.6         	-4.684461e-02
414.8         	-4.684461e-02
415           	-4.606555e-02
415.2         	-4.606555e-02
415.4         	-4.606555e-02
415.6         	-4.606555e-02
415.8         	-4.606555e-02
416           	-4.528684e-02
416.2         	-4.528684e-02
416.4         	-4.528684e-02
416.6         	-4.528684e-02
416.8         	-4.528684e-02
417           	-4.451134e-02
417.2         	-4.451134e-02
417.4         	-4.451134e-02
417.6         	-4.451134e-02
417.8         	-4.451134e-02
418           	-4.373455e-02
418.2         	-4.373455e-02
418.4         	-4.373455e-02
418.6         	-4.373455e-02
418.8         	-4.373455e-02
419           	-4.296019e-02
419.2         	-4.296019e-02
419.4         	-4.296019e-02
419.6         	-4.296019e-02
419.8         	-4.296019e-02
420           	-4.218601e-02
420.2         	-4.218601e-02
420.4         	-4.218601e-02
420.6         	-4.218601e-02
420.8         	-4.218601e-02
421           	-4.141127e-02
421.2         	-4.141127e-02
421.4         	-4.141127e-02
421.6         	-4.141127e-02
421.8         	-4.141127e-02
422           	-4.064098e-02
422.2         	-4.064098e-02
422.4         	-4.064098e-02
422.6         	-4.064098e-02
422.8         	-4.064098e-02
423           	-3.986726e-02
423.2         	-3.986726e-02
423.4         	-3.986726e-02
423.6         	-3.986726e-02
423.8         	-3.986726e-02
424           	-3.909159e-02
424.2         	-3.909159e-02
424.4         	-3.909159e-02
424.6         	-3.909159e-02
424.8         	-3.909159e-02
425           	-3.831518e-02
425.2         	-3.831518e-02
425.4         	-3.831518e-02
425.6         	-3.831518e-02
425.8         	-3.831518e-02
426           	-3.753459e-02
426.2         	-3.753459e-02
426.4         	-3.753459e-02
426.6         	-3.753459e-02
426.8         	-3.753459e-02
427           	-3.675169e-02
427.2         	-3.675169e-02
427.4         	-3.675169e-02
427.6         	-3.675169e-02
427.8         	-3.675169e-02
428           	-3.596470e-02
428.2         	-3.596470e-02
428.4         	-3.596470e-02
428.6         	-3.596470e-02
428.8         	-3.596470e-02
429           	-3.517187e-02
429.2         	-3.517187e-02
429.4         	-3.517187e-02
429.6         	-3.517187e-02
429.8         	-3.517187e-02
430           	-3.437476e-02
430.2         	-3.437476e-02
430.4         	-3.437476e-02
430.6         	-3.437476e-02
430.8         	-3.437476e-02
431           	-3.357270e-02
431.2         	-3.357270e-02
431.4         	-3.357270e-02
431.6         	-3.357270e-02
431.8         	-3.357270e-02
432           	-3.276413e-02
432.2         	-3.276413e-02
432.4         	-3.276413e-02
432.6         	-3.276413e-02
432.8         	-3.276413e-02
433           	-3.195017e-02
433.2         	-3.195017e-02
433.4         	-3.195017e-02
433.6         	-3.195017e-02
433.8         	-3.195017e-02
434           	-3.113297e-02
434.2         	-3.113297e-02
434.4         	-3.113297e-02
434.6         	-3.113297e-02
434.8         	-3.113297e-02
435           	-3.030807e-02
435.2         	-3.030807e-02
435.4         	-3.030807e-02
435.6         	-3.030807e-02
435.8         	-3.030807e-02
436           	-2.947765e-02
436.2         	-2.947765e-02
436.4         	-2.947765e-02
436.6         	-2.947765e-02
436.8         	-2.947765e-02
437           	-2.864226e-02
437.2         	-2.864226e-02
437.4         	-2.864226e-02
437.6         	-2.864226e-02
437.8         	-2.864226e-02
438           	-2.780247e-02
438.2         	-2.780247e-02
438.4         	-2.780247e-02
438.6         	-2.780247e-02
438.8         	-2.780247e-02
439           	-2.695835e-02
439.2         	-2.695835e-02
439.4         	-2.695835e-02
439.6         	-2.695835e-02
439.8         	-2.695835e-02
440           	-2.611177e-02
440.2         	-2.611177e-02
440.4         	-2.611177e-02
440.6         	-2.611177e-02
440.8         	-2.611177e-02
441           	-2.526179e-02
441.2         	-2.526179e-02
441.4         	-2.526179e-02
441.6         	-2.526179e-02
441.8         	-2.526179e-02
442           	-2.441356e-02
442.2         	-2.441356e-02
442.4         	-2.441356e-02
442.6         	-2.441356e-02
442.8         	-2.441356e-02
443           	-2.356199e-02
443.2         	-2.356199e-02
443.4         	-2.356199e-02
443.6         	-2.356199e-02
443.8         	-2.356199e-02
444           	-2.271207e-02
444.2         	-2.271207e-02
444.4         	-2.271207e-02
444.6         	-2.271207e-02
444.8         	-2.271207e-02
445           	-2.186303e-02
445.2         	-2.186303e-02
445.4         	-2.186303e-02
445.6         	-2.186303e-02
445.8         	-2.186303e-02
446           	-2.101673e-02
446.2         	-2.101673e-02
446.4         	-2.101673e-02
446.6         	-2.101673e-02
446.8         	-2.101673e-02
447           	-2.017350e-02
447.2         	-2.017350e-02
447.4         	-2.017350e-02
447.6         	-2.017350e-02
447.8         	-2.017350e-02
448           	-1.933459e-02
448.2         	-1.933459e-02
448.4         	-1.933459e-02
448.6         	-1.933459e-02
448.8         	-1.933459e-02
449           	-1.850043e-02
449.2         	-1.850043e-02
449.4         	-1.850043e-02
449.6         	-1.850043e-02
449.8         	-1.850043e-02
450           	-1.767288e-02
450.2         	-1.767288e-02
450.4         	-1.767288e-02
450.6         	-1.767288e-02
450.8         	-1.767288e-02
451           	-1.685197e-02
451.2         	-1.685197e-02
451.4         	-1.685197e-02
451.6         	-1.685197e-02
451.8         	-1.685197e-02
452           	-1.603691e-02
452.2         	-1.603691e-02
452.4         	-1.603691e-02
452.6         	-1.603691e-02
452.8         	-1.603691e-02
453           	-1.522931e-02
453.2         	-1.522931e-02
453.4         	-1.522931e-02
453.6         	-1.522931e-02
453.8         	-1.522931e-02
454           	-1.442890e-02
454.2         	-1.442890e-02
454.4         	-1.442890e-02
454.6         	-1.442890e-02
454.8         	-1.442890e-02
455           	-1.363542e-02
455.2         	-1.363542e-02
455.4         	-1.363542e-02
455.6         	-1.363542e-02
455.8         	-1.363542e-02
456           	-1.284859e-02
456.2         	-1.284859e-02
456.4         	-1.284859e-02
456.6         	-1.284859e-02
456.8         	-1.284859e-02
457           	-1.207042e-02
457.2         	-1.207042e-02
457.4         	-1.207042e-02
457.6         	-1.207042e-02
457.8         	-1.207042e-02
458           	-1.129799e-02
458.2         	-1.129799e-02
458.4         	-1.129799e-02
458.6         	-1.129799e-02
458.8         	-1.129799e-02
459           	-1.053168e-02
459.2         	-1.053168e-02
459.4         	-1.053168e-02
459.6         	-1.053168e-02
459.8         	-1.053168e-02
460           	-9.769890e-03
460.2         	-9.769890e-03
460.4         	-9.769890e-03
460.6         	-9.769890e-03
460.8         	-9.769890e-03
461           	-9.013583e-03
461.2         	-9.013583e-03
461.4         	-9.013583e-03
461.6         	-9.013583e-03
461.8         	-9.013583e-03
462           	-8.263007e-03
462.2         	-8.263007e-03
462.4         	-8.263007e-03
462.6         	-8.263007e-03
462.8         	-8.263007e-03
463           	-7.514021e-03
463.2         	-7.514021e-03
463.4         	-7.514021e-03
463.6         	-7.514021e-03
463.8         	-7.514021e-03
464           	-6.765744e-03
464.2         	-6.765744e-03
464.4         	-6.765744e-03
464.6         	-6.765744e-03
464.8         	-6.765744e-03
465           	-6.018040e-03
465.2         	-6.018040e-03
465.4         	-6.018040e-03
465.6         	-6.018040e-03
465.8         	-6.018040e-03
466           	-5.263870e-03
466.2         	-5.263870e-03
466.4         	-5.263870e-03
466.6         	-5.263870e-03
466.8         	-5.263870e-03
467           	-4.511203e-03
467.2         	-4.511203e-03
467.4         	-4.511203e-03
467.6         	-4.511203e-03
467.8         	-4.511203e-03
468           	-3.752378e-03
468.2         	-3.752378e-03
468.4         	-3.752378e-03
468.6         	-3.752378e-03
468.8         	-3.752378e-03
469           	-2.985061e-03
469.2         	-2.985061e-03
469.4         	-2.985061e-03
469.6         	-2.985061e-03
469.8         	-2.985061e-03
470           	-2.207372e-03
470.2         	-2.207372e-03
470.4         	-2.207372e-03
470.6         	-2.207372e-03
470.8         	-2.207372e-03
471           	-1.414909e-03
471.2         	-1.414909e-03
471.4         	-1.414909e-03
471.6         	-1.414909e-03
471.8         	-1.414909e-03
472           	-6.049470e-04
472.2         	-6.049470e-04
472.4         	-6.049470e-04
472.6         	-6.049470e-04
472.8         	-6.049470e-04
473           	2.299905e-04
473.2         	2.299905e-04
473.4         	2.299905e-04
473.6         	2.299905e-04
473.8         	2.299905e-04
474           	1.095383e-03
474.2         	1.095383e-03
474.4         	1.095383e-03
474.6         	1.095383e-03
474.8         	1.095383e-03
475           	1.999674e-03
475.2         	1.999674e-03
475.4         	1.999674e-03
475.6         	1.999674e-03
475.8         	1.999674e-03
476           	2.955377e-03
476.2         	2.955377e-03
476.4         	2.955377e-03
476.6         	2.955377e-03
476.8         	2.955377e-03
477           	3.979630e-03
477.2         	3.979630e-03
