# Region type : faceZone InSurface
# Faces  :    590
# Area   :    6.238624e+01
# Time        	areaAverage(surfaceInterpolate(mag(U)))
200           	7.915620e-01
200.2         	7.915620e-01
200.4         	7.915620e-01
200.6         	7.915620e-01
200.8         	7.915620e-01
201           	7.915406e-01
201.2         	7.915406e-01
201.4         	7.915406e-01
201.6         	7.915406e-01
201.8         	7.915406e-01
202           	7.915229e-01
202.2         	7.915229e-01
202.4         	7.915229e-01
202.6         	7.915229e-01
202.8         	7.915229e-01
203           	7.915059e-01
203.2         	7.915059e-01
203.4         	7.915059e-01
203.6         	7.915059e-01
203.8         	7.915059e-01
204           	7.914840e-01
204.2         	7.914840e-01
204.4         	7.914840e-01
204.6         	7.914840e-01
204.8         	7.914840e-01
205           	7.914502e-01
205.2         	7.914502e-01
205.4         	7.914502e-01
205.6         	7.914502e-01
205.8         	7.914502e-01
206           	7.914002e-01
206.2         	7.914002e-01
206.4         	7.914002e-01
206.6         	7.914002e-01
206.8         	7.914002e-01
207           	7.913333e-01
207.2         	7.913333e-01
207.4         	7.913333e-01
207.6         	7.913333e-01
207.8         	7.913333e-01
208           	7.912549e-01
208.2         	7.912549e-01
208.4         	7.912549e-01
208.6         	7.912549e-01
208.8         	7.912549e-01
209           	7.911756e-01
209.2         	7.911756e-01
209.4         	7.911756e-01
209.6         	7.911756e-01
209.8         	7.911756e-01
210           	7.911063e-01
210.2         	7.911063e-01
210.4         	7.911063e-01
210.6         	7.911063e-01
210.8         	7.911063e-01
211           	7.910510e-01
211.2         	7.910510e-01
211.4         	7.910510e-01
211.6         	7.910510e-01
211.8         	7.910510e-01
212           	7.910034e-01
212.2         	7.910034e-01
212.4         	7.910034e-01
212.6         	7.910034e-01
212.8         	7.910034e-01
213           	7.909525e-01
213.2         	7.909525e-01
213.4         	7.909525e-01
213.6         	7.909525e-01
213.8         	7.909525e-01
214           	7.908912e-01
214.2         	7.908912e-01
214.4         	7.908912e-01
214.6         	7.908912e-01
214.8         	7.908912e-01
215           	7.908193e-01
215.2         	7.908193e-01
215.4         	7.908193e-01
215.6         	7.908193e-01
215.8         	7.908193e-01
216           	7.907438e-01
216.2         	7.907438e-01
216.4         	7.907438e-01
216.6         	7.907438e-01
216.8         	7.907438e-01
217           	7.906744e-01
217.2         	7.906744e-01
217.4         	7.906744e-01
217.6         	7.906744e-01
217.8         	7.906744e-01
218           	7.906192e-01
218.2         	7.906192e-01
218.4         	7.906192e-01
218.6         	7.906192e-01
218.8         	7.906192e-01
219           	7.905806e-01
219.2         	7.905806e-01
219.4         	7.905806e-01
219.6         	7.905806e-01
219.8         	7.905806e-01
220           	7.905540e-01
220.2         	7.905540e-01
220.4         	7.905540e-01
220.6         	7.905540e-01
220.8         	7.905540e-01
221           	7.905290e-01
221.2         	7.905290e-01
221.4         	7.905290e-01
221.6         	7.905290e-01
221.8         	7.905290e-01
222           	7.904952e-01
222.2         	7.904952e-01
222.4         	7.904952e-01
222.6         	7.904952e-01
222.8         	7.904952e-01
223           	7.904459e-01
223.2         	7.904459e-01
223.4         	7.904459e-01
223.6         	7.904459e-01
223.8         	7.904459e-01
224           	7.903829e-01
224.2         	7.903829e-01
224.4         	7.903829e-01
224.6         	7.903829e-01
224.8         	7.903829e-01
225           	7.903133e-01
225.2         	7.903133e-01
225.4         	7.903133e-01
225.6         	7.903133e-01
225.8         	7.903133e-01
226           	7.902445e-01
226.2         	7.902445e-01
226.4         	7.902445e-01
226.6         	7.902445e-01
226.8         	7.902445e-01
227           	7.901810e-01
227.2         	7.901810e-01
227.4         	7.901810e-01
227.6         	7.901810e-01
227.8         	7.901810e-01
228           	7.901252e-01
228.2         	7.901252e-01
228.4         	7.901252e-01
228.6         	7.901252e-01
228.8         	7.901252e-01
229           	7.900780e-01
229.2         	7.900780e-01
229.4         	7.900780e-01
229.6         	7.900780e-01
229.8         	7.900780e-01
230           	7.900394e-01
230.2         	7.900394e-01
230.4         	7.900394e-01
230.6         	7.900394e-01
230.8         	7.900394e-01
231           	7.900070e-01
231.2         	7.900070e-01
231.4         	7.900070e-01
231.6         	7.900070e-01
231.8         	7.900070e-01
232           	7.899758e-01
232.2         	7.899758e-01
232.4         	7.899758e-01
232.6         	7.899758e-01
232.8         	7.899758e-01
233           	7.899385e-01
233.2         	7.899385e-01
233.4         	7.899385e-01
233.6         	7.899385e-01
233.8         	7.899385e-01
234           	7.898898e-01
234.2         	7.898898e-01
234.4         	7.898898e-01
234.6         	7.898898e-01
234.8         	7.898898e-01
235           	7.898287e-01
235.2         	7.898287e-01
235.4         	7.898287e-01
235.6         	7.898287e-01
235.8         	7.898287e-01
236           	7.897586e-01
236.2         	7.897586e-01
236.4         	7.897586e-01
236.6         	7.897586e-01
236.8         	7.897586e-01
237           	7.896854e-01
237.2         	7.896854e-01
237.4         	7.896854e-01
237.6         	7.896854e-01
237.8         	7.896854e-01
238           	7.896147e-01
238.2         	7.896147e-01
238.4         	7.896147e-01
238.6         	7.896147e-01
238.8         	7.896147e-01
239           	7.895496e-01
239.2         	7.895496e-01
239.4         	7.895496e-01
239.6         	7.895496e-01
239.8         	7.895496e-01
240           	7.894920e-01
240.2         	7.894920e-01
240.4         	7.894920e-01
240.6         	7.894920e-01
240.8         	7.894920e-01
241           	7.894418e-01
241.2         	7.894418e-01
241.4         	7.894418e-01
241.6         	7.894418e-01
241.8         	7.894418e-01
242           	7.893981e-01
242.2         	7.893981e-01
242.4         	7.893981e-01
242.6         	7.893981e-01
242.8         	7.893981e-01
243           	7.893592e-01
243.2         	7.893592e-01
243.4         	7.893592e-01
243.6         	7.893592e-01
243.8         	7.893592e-01
244           	7.893218e-01
244.2         	7.893218e-01
244.4         	7.893218e-01
244.6         	7.893218e-01
244.8         	7.893218e-01
245           	7.892814e-01
245.2         	7.892814e-01
245.4         	7.892814e-01
245.6         	7.892814e-01
245.8         	7.892814e-01
246           	7.892332e-01
246.2         	7.892332e-01
246.4         	7.892332e-01
246.6         	7.892332e-01
246.8         	7.892332e-01
247           	7.891761e-01
247.2         	7.891761e-01
247.4         	7.891761e-01
247.6         	7.891761e-01
247.8         	7.891761e-01
248           	7.891106e-01
248.2         	7.891106e-01
248.4         	7.891106e-01
248.6         	7.891106e-01
248.8         	7.891106e-01
249           	7.890395e-01
249.2         	7.890395e-01
249.4         	7.890395e-01
249.6         	7.890395e-01
249.8         	7.890395e-01
250           	7.889658e-01
250.2         	7.889658e-01
250.4         	7.889658e-01
250.6         	7.889658e-01
250.8         	7.889658e-01
251           	7.888910e-01
251.2         	7.888910e-01
251.4         	7.888910e-01
251.6         	7.888910e-01
251.8         	7.888910e-01
252           	7.888166e-01
252.2         	7.888166e-01
252.4         	7.888166e-01
252.6         	7.888166e-01
252.8         	7.888166e-01
253           	7.887429e-01
253.2         	7.887429e-01
253.4         	7.887429e-01
253.6         	7.887429e-01
253.8         	7.887429e-01
254           	7.886712e-01
254.2         	7.886712e-01
254.4         	7.886712e-01
254.6         	7.886712e-01
254.8         	7.886712e-01
255           	7.886032e-01
255.2         	7.886032e-01
255.4         	7.886032e-01
255.6         	7.886032e-01
255.8         	7.886032e-01
256           	7.885401e-01
256.2         	7.885401e-01
256.4         	7.885401e-01
256.6         	7.885401e-01
256.8         	7.885401e-01
257           	7.884828e-01
257.2         	7.884828e-01
257.4         	7.884828e-01
257.6         	7.884828e-01
257.8         	7.884828e-01
258           	7.884307e-01
258.2         	7.884307e-01
258.4         	7.884307e-01
258.6         	7.884307e-01
258.8         	7.884307e-01
259           	7.883829e-01
259.2         	7.883829e-01
259.4         	7.883829e-01
259.6         	7.883829e-01
259.8         	7.883829e-01
260           	7.883384e-01
260.2         	7.883384e-01
260.4         	7.883384e-01
260.6         	7.883384e-01
260.8         	7.883384e-01
261           	7.882955e-01
261.2         	7.882955e-01
261.4         	7.882955e-01
261.6         	7.882955e-01
261.8         	7.882955e-01
262           	7.882528e-01
262.2         	7.882528e-01
262.4         	7.882528e-01
262.6         	7.882528e-01
262.8         	7.882528e-01
263           	7.882083e-01
263.2         	7.882083e-01
263.4         	7.882083e-01
263.6         	7.882083e-01
263.8         	7.882083e-01
264           	7.881605e-01
264.2         	7.881605e-01
264.4         	7.881605e-01
264.6         	7.881605e-01
264.8         	7.881605e-01
265           	7.881088e-01
265.2         	7.881088e-01
265.4         	7.881088e-01
265.6         	7.881088e-01
265.8         	7.881088e-01
266           	7.880538e-01
266.2         	7.880538e-01
266.4         	7.880538e-01
266.6         	7.880538e-01
266.8         	7.880538e-01
267           	7.879982e-01
267.2         	7.879982e-01
267.4         	7.879982e-01
267.6         	7.879982e-01
267.8         	7.879982e-01
268           	7.879439e-01
268.2         	7.879439e-01
268.4         	7.879439e-01
268.6         	7.879439e-01
268.8         	7.879439e-01
269           	7.878909e-01
269.2         	7.878909e-01
269.4         	7.878909e-01
269.6         	7.878909e-01
269.8         	7.878909e-01
270           	7.878387e-01
270.2         	7.878387e-01
270.4         	7.878387e-01
270.6         	7.878387e-01
270.8         	7.878387e-01
271           	7.877858e-01
271.2         	7.877858e-01
271.4         	7.877858e-01
271.6         	7.877858e-01
271.8         	7.877858e-01
272           	7.877310e-01
272.2         	7.877310e-01
272.4         	7.877310e-01
272.6         	7.877310e-01
272.8         	7.877310e-01
273           	7.876739e-01
273.2         	7.876739e-01
273.4         	7.876739e-01
273.6         	7.876739e-01
273.8         	7.876739e-01
274           	7.876146e-01
274.2         	7.876146e-01
274.4         	7.876146e-01
274.6         	7.876146e-01
274.8         	7.876146e-01
275           	7.875535e-01
275.2         	7.875535e-01
275.4         	7.875535e-01
275.6         	7.875535e-01
275.8         	7.875535e-01
276           	7.874917e-01
276.2         	7.874917e-01
276.4         	7.874917e-01
276.6         	7.874917e-01
276.8         	7.874917e-01
277           	7.874294e-01
277.2         	7.874294e-01
277.4         	7.874294e-01
277.6         	7.874294e-01
277.8         	7.874294e-01
278           	7.873669e-01
278.2         	7.873669e-01
278.4         	7.873669e-01
278.6         	7.873669e-01
278.8         	7.873669e-01
279           	7.873035e-01
279.2         	7.873035e-01
279.4         	7.873035e-01
279.6         	7.873035e-01
279.8         	7.873035e-01
280           	7.872386e-01
280.2         	7.872386e-01
280.4         	7.872386e-01
280.6         	7.872386e-01
280.8         	7.872386e-01
281           	7.871709e-01
281.2         	7.871709e-01
281.4         	7.871709e-01
281.6         	7.871709e-01
281.8         	7.871709e-01
282           	7.871006e-01
282.2         	7.871006e-01
282.4         	7.871006e-01
282.6         	7.871006e-01
282.8         	7.871006e-01
283           	7.870276e-01
283.2         	7.870276e-01
283.4         	7.870276e-01
283.6         	7.870276e-01
283.8         	7.870276e-01
284           	7.869523e-01
284.2         	7.869523e-01
284.4         	7.869523e-01
284.6         	7.869523e-01
284.8         	7.869523e-01
285           	7.868767e-01
285.2         	7.868767e-01
285.4         	7.868767e-01
285.6         	7.868767e-01
285.8         	7.868767e-01
286           	7.868035e-01
286.2         	7.868035e-01
286.4         	7.868035e-01
286.6         	7.868035e-01
286.8         	7.868035e-01
287           	7.867344e-01
287.2         	7.867344e-01
287.4         	7.867344e-01
287.6         	7.867344e-01
287.8         	7.867344e-01
288           	7.866706e-01
288.2         	7.866706e-01
288.4         	7.866706e-01
288.6         	7.866706e-01
288.8         	7.866706e-01
289           	7.866119e-01
289.2         	7.866119e-01
289.4         	7.866119e-01
289.6         	7.866119e-01
289.8         	7.866119e-01
290           	7.865565e-01
290.2         	7.865565e-01
290.4         	7.865565e-01
290.6         	7.865565e-01
290.8         	7.865565e-01
291           	7.865021e-01
291.2         	7.865021e-01
291.4         	7.865021e-01
291.6         	7.865021e-01
291.8         	7.865021e-01
