# Region type : faceZone InSurface
# Faces  :    590
# Area   :    6.238624e+01
# Time        	areaAverage(surfaceInterpolate(mag(U)))
485           	7.687032e-01
485.2         	7.687032e-01
