# Region type : faceZone InSurface
# Faces  :    2454
# Area   :    1.018735e+02
# Time        	areaAverage(surfaceInterpolate(mag(U)))
100           	6.817028e-01
100.2         	6.817028e-01
100.4         	6.817028e-01
100.6         	6.817028e-01
100.8         	6.817028e-01
101           	6.815905e-01
101.2         	6.815905e-01
101.4         	6.815905e-01
101.6         	6.815905e-01
101.8         	6.815905e-01
102           	6.814824e-01
102.2         	6.814824e-01
102.4         	6.814824e-01
102.6         	6.814824e-01
102.8         	6.814824e-01
103           	6.813844e-01
103.2         	6.813844e-01
103.4         	6.813844e-01
103.6         	6.813844e-01
103.8         	6.813844e-01
104           	6.812964e-01
104.2         	6.812964e-01
104.4         	6.812964e-01
104.6         	6.812964e-01
104.8         	6.812964e-01
105           	6.812096e-01
105.2         	6.812096e-01
105.4         	6.812096e-01
105.6         	6.812096e-01
105.8         	6.812096e-01
106           	6.811162e-01
106.2         	6.811162e-01
106.4         	6.811162e-01
106.6         	6.811162e-01
106.8         	6.811162e-01
107           	6.810163e-01
107.2         	6.810163e-01
107.4         	6.810163e-01
107.6         	6.810163e-01
107.8         	6.810163e-01
108           	6.809154e-01
108.2         	6.809154e-01
108.4         	6.809154e-01
108.6         	6.809154e-01
108.8         	6.809154e-01
109           	6.808149e-01
109.2         	6.808149e-01
109.4         	6.808149e-01
109.6         	6.808149e-01
109.8         	6.808149e-01
110           	6.807150e-01
110.2         	6.807150e-01
110.4         	6.807150e-01
110.6         	6.807150e-01
110.8         	6.807150e-01
111           	6.806152e-01
111.2         	6.806152e-01
111.4         	6.806152e-01
111.6         	6.806152e-01
111.8         	6.806152e-01
112           	6.805164e-01
112.2         	6.805164e-01
112.4         	6.805164e-01
112.6         	6.805164e-01
112.8         	6.805164e-01
113           	6.804206e-01
113.2         	6.804206e-01
113.4         	6.804206e-01
113.6         	6.804206e-01
113.8         	6.804206e-01
114           	6.803280e-01
114.2         	6.803280e-01
114.4         	6.803280e-01
114.6         	6.803280e-01
114.8         	6.803280e-01
115           	6.802338e-01
115.2         	6.802338e-01
115.4         	6.802338e-01
115.6         	6.802338e-01
115.8         	6.802338e-01
116           	6.801407e-01
116.2         	6.801407e-01
116.4         	6.801407e-01
116.6         	6.801407e-01
116.8         	6.801407e-01
117           	6.800481e-01
117.2         	6.800481e-01
117.4         	6.800481e-01
117.6         	6.800481e-01
117.8         	6.800481e-01
118           	6.799585e-01
118.2         	6.799585e-01
118.4         	6.799585e-01
118.6         	6.799585e-01
118.8         	6.799585e-01
119           	6.798682e-01
119.2         	6.798682e-01
119.4         	6.798682e-01
119.6         	6.798682e-01
119.8         	6.798682e-01
120           	6.797779e-01
120.2         	6.797779e-01
120.4         	6.797779e-01
120.6         	6.797779e-01
120.8         	6.797779e-01
121           	6.796884e-01
121.2         	6.796884e-01
121.4         	6.796884e-01
121.6         	6.796884e-01
121.8         	6.796884e-01
122           	6.795995e-01
122.2         	6.795995e-01
122.4         	6.795995e-01
122.6         	6.795995e-01
122.8         	6.795995e-01
123           	6.795128e-01
123.2         	6.795128e-01
123.4         	6.795128e-01
123.6         	6.795128e-01
123.8         	6.795128e-01
124           	6.794297e-01
124.2         	6.794297e-01
124.4         	6.794297e-01
124.6         	6.794297e-01
124.8         	6.794297e-01
125           	6.793490e-01
125.2         	6.793490e-01
125.4         	6.793490e-01
125.6         	6.793490e-01
125.8         	6.793490e-01
126           	6.792697e-01
126.2         	6.792697e-01
126.4         	6.792697e-01
126.6         	6.792697e-01
126.8         	6.792697e-01
127           	6.791923e-01
127.2         	6.791923e-01
127.4         	6.791923e-01
127.6         	6.791923e-01
127.8         	6.791923e-01
128           	6.791151e-01
128.2         	6.791151e-01
128.4         	6.791151e-01
128.6         	6.791151e-01
128.8         	6.791151e-01
129           	6.790358e-01
129.2         	6.790358e-01
129.4         	6.790358e-01
129.6         	6.790358e-01
129.8         	6.790358e-01
130           	6.789535e-01
130.2         	6.789535e-01
130.4         	6.789535e-01
130.6         	6.789535e-01
130.8         	6.789535e-01
131           	6.788734e-01
131.2         	6.788734e-01
131.4         	6.788734e-01
131.6         	6.788734e-01
131.8         	6.788734e-01
132           	6.787953e-01
132.2         	6.787953e-01
132.4         	6.787953e-01
132.6         	6.787953e-01
132.8         	6.787953e-01
133           	6.787206e-01
133.2         	6.787206e-01
133.4         	6.787206e-01
133.6         	6.787206e-01
133.8         	6.787206e-01
134           	6.786484e-01
134.2         	6.786484e-01
134.4         	6.786484e-01
134.6         	6.786484e-01
134.8         	6.786484e-01
135           	6.785786e-01
135.2         	6.785786e-01
135.4         	6.785786e-01
135.6         	6.785786e-01
135.8         	6.785786e-01
136           	6.785101e-01
136.2         	6.785101e-01
136.4         	6.785101e-01
136.6         	6.785101e-01
136.8         	6.785101e-01
137           	6.784416e-01
137.2         	6.784416e-01
137.4         	6.784416e-01
137.6         	6.784416e-01
137.8         	6.784416e-01
138           	6.783715e-01
138.2         	6.783715e-01
138.4         	6.783715e-01
138.6         	6.783715e-01
138.8         	6.783715e-01
139           	6.782991e-01
139.2         	6.782991e-01
139.4         	6.782991e-01
139.6         	6.782991e-01
139.8         	6.782991e-01
140           	6.782258e-01
140.2         	6.782258e-01
140.4         	6.782258e-01
140.6         	6.782258e-01
140.8         	6.782258e-01
141           	6.781540e-01
141.2         	6.781540e-01
141.4         	6.781540e-01
141.6         	6.781540e-01
141.8         	6.781540e-01
142           	6.780856e-01
142.2         	6.780856e-01
142.4         	6.780856e-01
142.6         	6.780856e-01
142.8         	6.780856e-01
143           	6.780181e-01
143.2         	6.780181e-01
143.4         	6.780181e-01
143.6         	6.780181e-01
143.8         	6.780181e-01
144           	6.779498e-01
144.2         	6.779498e-01
144.4         	6.779498e-01
144.6         	6.779498e-01
144.8         	6.779498e-01
145           	6.778823e-01
145.2         	6.778823e-01
145.4         	6.778823e-01
145.6         	6.778823e-01
145.8         	6.778823e-01
146           	6.778149e-01
146.2         	6.778149e-01
146.4         	6.778149e-01
146.6         	6.778149e-01
146.8         	6.778149e-01
147           	6.777479e-01
147.2         	6.777479e-01
147.4         	6.777479e-01
147.6         	6.777479e-01
147.8         	6.777479e-01
148           	6.776828e-01
148.2         	6.776828e-01
148.4         	6.776828e-01
148.6         	6.776828e-01
148.8         	6.776828e-01
149           	6.776220e-01
149.2         	6.776220e-01
149.4         	6.776220e-01
149.6         	6.776220e-01
149.8         	6.776220e-01
150           	6.775649e-01
150.2         	6.775649e-01
150.4         	6.775649e-01
150.6         	6.775649e-01
150.8         	6.775649e-01
151           	6.775088e-01
151.2         	6.775088e-01
151.4         	6.775088e-01
151.6         	6.775088e-01
151.8         	6.775088e-01
152           	6.774522e-01
152.2         	6.774522e-01
152.4         	6.774522e-01
152.6         	6.774522e-01
152.8         	6.774522e-01
153           	6.773939e-01
153.2         	6.773939e-01
153.4         	6.773939e-01
153.6         	6.773939e-01
153.8         	6.773939e-01
154           	6.773363e-01
154.2         	6.773363e-01
154.4         	6.773363e-01
154.6         	6.773363e-01
154.8         	6.773363e-01
155           	6.772804e-01
155.2         	6.772804e-01
155.4         	6.772804e-01
155.6         	6.772804e-01
155.8         	6.772804e-01
156           	6.772238e-01
156.2         	6.772238e-01
156.4         	6.772238e-01
156.6         	6.772238e-01
156.8         	6.772238e-01
157           	6.771625e-01
157.2         	6.771625e-01
157.4         	6.771625e-01
157.6         	6.771625e-01
157.8         	6.771625e-01
158           	6.770972e-01
158.2         	6.770972e-01
158.4         	6.770972e-01
158.6         	6.770972e-01
158.8         	6.770972e-01
159           	6.770324e-01
159.2         	6.770324e-01
159.4         	6.770324e-01
159.6         	6.770324e-01
159.8         	6.770324e-01
160           	6.769737e-01
160.2         	6.769737e-01
160.4         	6.769737e-01
160.6         	6.769737e-01
160.8         	6.769737e-01
161           	6.769214e-01
161.2         	6.769214e-01
161.4         	6.769214e-01
161.6         	6.769214e-01
161.8         	6.769214e-01
162           	6.768724e-01
162.2         	6.768724e-01
162.4         	6.768724e-01
162.6         	6.768724e-01
162.8         	6.768724e-01
163           	6.768248e-01
163.2         	6.768248e-01
163.4         	6.768248e-01
163.6         	6.768248e-01
163.8         	6.768248e-01
164           	6.767773e-01
164.2         	6.767773e-01
164.4         	6.767773e-01
164.6         	6.767773e-01
164.8         	6.767773e-01
165           	6.767309e-01
165.2         	6.767309e-01
165.4         	6.767309e-01
165.6         	6.767309e-01
165.8         	6.767309e-01
166           	6.766821e-01
166.2         	6.766821e-01
166.4         	6.766821e-01
166.6         	6.766821e-01
166.8         	6.766821e-01
167           	6.766313e-01
167.2         	6.766313e-01
167.4         	6.766313e-01
167.6         	6.766313e-01
167.8         	6.766313e-01
168           	6.765786e-01
168.2         	6.765786e-01
168.4         	6.765786e-01
168.6         	6.765786e-01
168.8         	6.765786e-01
169           	6.765240e-01
169.2         	6.765240e-01
169.4         	6.765240e-01
169.6         	6.765240e-01
169.8         	6.765240e-01
170           	6.764683e-01
170.2         	6.764683e-01
170.4         	6.764683e-01
170.6         	6.764683e-01
170.8         	6.764683e-01
171           	6.764106e-01
171.2         	6.764106e-01
171.4         	6.764106e-01
171.6         	6.764106e-01
171.8         	6.764106e-01
172           	6.763505e-01
172.2         	6.763505e-01
172.4         	6.763505e-01
172.6         	6.763505e-01
172.8         	6.763505e-01
173           	6.762909e-01
173.2         	6.762909e-01
173.4         	6.762909e-01
173.6         	6.762909e-01
173.8         	6.762909e-01
174           	6.762371e-01
174.2         	6.762371e-01
174.4         	6.762371e-01
174.6         	6.762371e-01
174.8         	6.762371e-01
175           	6.761905e-01
175.2         	6.761905e-01
175.4         	6.761905e-01
175.6         	6.761905e-01
175.8         	6.761905e-01
176           	6.761495e-01
176.2         	6.761495e-01
176.4         	6.761495e-01
176.6         	6.761495e-01
176.8         	6.761495e-01
177           	6.761097e-01
177.2         	6.761097e-01
177.4         	6.761097e-01
177.6         	6.761097e-01
177.8         	6.761097e-01
178           	6.760689e-01
178.2         	6.760689e-01
178.4         	6.760689e-01
178.6         	6.760689e-01
178.8         	6.760689e-01
179           	6.760235e-01
179.2         	6.760235e-01
179.4         	6.760235e-01
179.6         	6.760235e-01
179.8         	6.760235e-01
180           	6.759741e-01
180.2         	6.759741e-01
180.4         	6.759741e-01
180.6         	6.759741e-01
180.8         	6.759741e-01
181           	6.759225e-01
181.2         	6.759225e-01
181.4         	6.759225e-01
181.6         	6.759225e-01
181.8         	6.759225e-01
182           	6.758717e-01
182.2         	6.758717e-01
182.4         	6.758717e-01
182.6         	6.758717e-01
182.8         	6.758717e-01
183           	6.758255e-01
183.2         	6.758255e-01
183.4         	6.758255e-01
183.6         	6.758255e-01
183.8         	6.758255e-01
184           	6.757856e-01
184.2         	6.757856e-01
184.4         	6.757856e-01
184.6         	6.757856e-01
184.8         	6.757856e-01
185           	6.757520e-01
185.2         	6.757520e-01
185.4         	6.757520e-01
185.6         	6.757520e-01
185.8         	6.757520e-01
186           	6.757239e-01
186.2         	6.757239e-01
186.4         	6.757239e-01
186.6         	6.757239e-01
186.8         	6.757239e-01
187           	6.756933e-01
187.2         	6.756933e-01
187.4         	6.756933e-01
187.6         	6.756933e-01
187.8         	6.756933e-01
188           	6.756521e-01
188.2         	6.756521e-01
188.4         	6.756521e-01
188.6         	6.756521e-01
188.8         	6.756521e-01
189           	6.755976e-01
189.2         	6.755976e-01
189.4         	6.755976e-01
189.6         	6.755976e-01
189.8         	6.755976e-01
190           	6.755336e-01
190.2         	6.755336e-01
190.4         	6.755336e-01
190.6         	6.755336e-01
190.8         	6.755336e-01
191           	6.754693e-01
191.2         	6.754693e-01
191.4         	6.754693e-01
191.6         	6.754693e-01
191.8         	6.754693e-01
192           	6.754140e-01
192.2         	6.754140e-01
192.4         	6.754140e-01
192.6         	6.754140e-01
192.8         	6.754140e-01
193           	6.753717e-01
193.2         	6.753717e-01
193.4         	6.753717e-01
193.6         	6.753717e-01
193.8         	6.753717e-01
194           	6.753405e-01
194.2         	6.753405e-01
194.4         	6.753405e-01
194.6         	6.753405e-01
194.8         	6.753405e-01
195           	6.753120e-01
195.2         	6.753120e-01
195.4         	6.753120e-01
195.6         	6.753120e-01
195.8         	6.753120e-01
196           	6.752797e-01
196.2         	6.752797e-01
196.4         	6.752797e-01
196.6         	6.752797e-01
196.8         	6.752797e-01
197           	6.752368e-01
197.2         	6.752368e-01
197.4         	6.752368e-01
197.6         	6.752368e-01
197.8         	6.752368e-01
198           	6.751846e-01
198.2         	6.751846e-01
198.4         	6.751846e-01
198.6         	6.751846e-01
198.8         	6.751846e-01
199           	6.751258e-01
199.2         	6.751258e-01
199.4         	6.751258e-01
199.6         	6.751258e-01
199.8         	6.751258e-01
200           	6.750686e-01
200.2         	6.750686e-01
200.4         	6.750686e-01
200.6         	6.750686e-01
200.8         	6.750686e-01
201           	6.750188e-01
201.2         	6.750188e-01
201.4         	6.750188e-01
201.6         	6.750188e-01
201.8         	6.750188e-01
202           	6.749788e-01
202.2         	6.749788e-01
202.4         	6.749788e-01
202.6         	6.749788e-01
202.8         	6.749788e-01
203           	6.749512e-01
203.2         	6.749512e-01
203.4         	6.749512e-01
203.6         	6.749512e-01
203.8         	6.749512e-01
204           	6.749373e-01
204.2         	6.749373e-01
204.4         	6.749373e-01
204.6         	6.749373e-01
204.8         	6.749373e-01
205           	6.749400e-01
205.2         	6.749400e-01
205.4         	6.749400e-01
205.6         	6.749400e-01
205.8         	6.749400e-01
206           	6.749537e-01
206.2         	6.749537e-01
206.4         	6.749537e-01
206.6         	6.749537e-01
206.8         	6.749537e-01
207           	6.749671e-01
207.2         	6.749671e-01
207.4         	6.749671e-01
207.6         	6.749671e-01
207.8         	6.749671e-01
208           	6.749606e-01
208.2         	6.749606e-01
208.4         	6.749606e-01
208.6         	6.749606e-01
208.8         	6.749606e-01
209           	6.749203e-01
209.2         	6.749203e-01
209.4         	6.749203e-01
209.6         	6.749203e-01
209.8         	6.749203e-01
210           	6.748420e-01
210.2         	6.748420e-01
210.4         	6.748420e-01
210.6         	6.748420e-01
210.8         	6.748420e-01
211           	6.747337e-01
211.2         	6.747337e-01
211.4         	6.747337e-01
211.6         	6.747337e-01
211.8         	6.747337e-01
212           	6.746125e-01
212.2         	6.746125e-01
212.4         	6.746125e-01
212.6         	6.746125e-01
212.8         	6.746125e-01
213           	6.744970e-01
213.2         	6.744970e-01
213.4         	6.744970e-01
213.6         	6.744970e-01
213.8         	6.744970e-01
214           	6.744026e-01
214.2         	6.744026e-01
